ITEM: TIMESTEP
350000
ITEM: NUMBER OF ATOMS
61797
ITEM: BOX BOUNDS pp pp pp
0.0 168.346024
0.0 176.773272
0.0 18.592180748
ITEM: ATOMS id type x y z vx vy vz
4920 2 2.8711 3.36481 0.794975 1.25832 -4.24421 1.58045
4929 1 2.85372 3.5922 1.8731 -21.2528 1.69244 66.9974
31056 1 168.077 2.00265 1.82215 18.6945 26.3956 -25.4784
4924 1 1.47632 1.52829 0.77124 -27.1859 50.9731 -10.2523
5030 1 3.32905 2.42649 2.96927 76.4627 2.15638 -28.2169
35905 1 4.50282 176.455 3.57999 30.1208 39.655 -23.0224
4927 2 2.53946 1.84668 0.493724 -13.9173 0.0389769 2.44957
31090 1 4.97974 0.184492 2.21742 -3.62143 -25.765 76.5991
4842 2 4.79999 0.610448 3.13679 6.67442 2.09445 -2.58091
4922 1 2.956 1.14585 1.12229 -41.2688 16.3516 13.2457
4831 2 4.44138 2.00141 2.88124 16.4509 13.8645 3.11903
9006 1 8.56164 0.6553 1.79625 30.1877 -35.6911 -1.51364
4860 1 4.69609 2.15204 0.705306 -14.7084 69.9035 59.357
9042 2 8.43878 1.04874 2.90321 5.72098 4.66456 6.62001
161 1 5.93267 175.719 17.7733 7.75255 -5.25441 -91.1049
9002 1 7.31425 0.113332 18.3076 -40.6953 37.1166 -76.6243
9004 2 8.8719 4.05841 1.06908 -2.21663 -14.8184 12.1506
9036 1 8.62645 4.04396 18.6422 -7.45524 64.8439 64.3832
4896 1 10.3804 1.94447 3.86286 -25.4438 34.9171 60.256
4968 2 9.47387 2.01975 3.28798 -3.49706 1.62197 -4.42121
5215 1 10.286 3.97279 2.31038 -29.2968 32.9033 19.223
5202 2 10.2987 1.74442 18.2802 8.61644 -10.4556 8.97988
8998 1 9.28171 1.89329 0.171235 -17.3611 13.4884 -16.6262
9020 1 14.3657 1.68158 1.19437 57.4184 2.05477 12.518
9024 2 11.1936 0.828313 0.513611 -7.06186 9.41624 13.5923
9049 1 10.5507 0.872349 1.38273 4.48698 42.5052 26.5567
5415 1 13.5726 2.18003 3.54814 -24.0834 -76.6284 10.7161
9044 2 14.8797 2.62309 0.851644 8.4107 -22.0346 0.648663
9045 2 16.1155 2.32058 0.411248 -10.8105 7.14622 -0.131573
9038 2 16.6631 1.2798 1.07548 -1.63614 2.47836 -13.9387
9030 1 16.0488 0.522501 1.29287 54.6266 102.23 -24.6062
9023 2 17.9661 1.06019 1.39587 4.89282 -1.82761 -27.9514
9222 1 18.7785 1.45033 1.82865 -44.0827 12.5501 9.89141
9147 1 17.0135 3.82471 4.51556 -19.5431 66.7575 -18.4431
5231 1 22.6012 3.13175 18.3994 -25.8683 -16.1038 28.3216
9124 4 19.3196 3.84493 1.32226 -12.0555 11.6925 -2.32208
9335 2 20.7326 1.59924 16.8727 -10.3781 -6.51024 -3.17504
9328 2 21.2884 1.06087 18.3609 4.20666 -18.2188 -15.3764
9341 1 21.1575 1.03307 4.33567 1.86756 49.8364 53.3077
9330 1 20.4153 0.368785 16.4846 25.9292 -3.88099 -27.6583
5423 2 22.0811 3.88098 0.212312 5.98406 -0.0921875 -2.52865
5287 1 20.9695 3.53284 0.579666 29.3339 9.12213 1.31024
11816 1 25.0554 3.43846 0.564479 31.0352 3.32045 -29.5551
5520 1 22.8982 3.03868 2.99894 23.4151 8.59366 -1.81114
12049 2 25.2445 2.35084 0.646731 16.6961 -10.5349 14.3574
11852 1 26.106 2.27181 18.492 53.954 -5.27514 1.39464
11819 1 28.8564 0.598933 1.52836 41.0604 15.6667 -36.2875
9756 1 25.6275 2.2808 2.86271 -40.5678 -19.1912 -27.0025
9737 2 25.4922 1.69332 1.82989 2.59667 -1.84397 -10.4776
11812 1 28.5025 3.30464 2.35297 28.3174 -27.0069 -3.12904
12026 2 29.5009 0.132255 2.3639 -1.10013 12.8156 0.203902
13796 1 31.7971 2.85146 1.07493 -25.7278 19.2515 -44.9601
13691 1 30.7331 3.45531 3.93641 -36.6804 49.5785 19.3494
13677 2 30.6431 3.6645 5.03863 14.0545 3.78001 3.13475
12002 1 32.9414 1.57915 3.16533 17.6881 6.63954 -16.3496
9500 1 29.7218 1.90154 0.38668 -64.6722 37.8157 -95.5663
13806 4 32.2676 2.13194 2.96074 -10.2629 7.35 5.44061
13687 2 32.6502 2.15387 1.62909 1.18185 -10.6158 -4.38425
13934 2 34.1739 2.61887 1.30672 -4.55083 -7.46701 2.67537
13927 1 35.0541 2.09445 1.51419 2.51143 -17.4579 -70.9637
5397 1 35.6082 3.72632 2.29553 -12.9371 -45.727 -3.98654
13685 1 32.5578 1.20951 1.05952 15.326 7.66888 0.292194
12080 1 34.3703 3.34976 4.82625 -70.5006 -54.5549 -22.2129
13727 1 38.6799 3.64204 2.75546 72.0476 -10.45 -43.7104
13702 2 38.9604 2.78863 1.83695 -5.88748 -0.784934 17.8092
13716 2 38.2735 1.63531 1.51415 2.76558 16.144 -8.23035
12075 1 37.2218 0.301502 3.60718 43.1858 -8.00209 7.3967
12093 2 37.2982 1.4 3.97136 2.04066 -16.8272 4.42681
13701 2 37.3904 1.45107 0.605566 -8.59531 8.53907 -2.22237
13900 1 36.8043 0.474502 0.655772 -1.71681 -77.5641 -66.5795
13708 1 38.287 1.02931 2.47058 49.2446 -20.701 -26.0226
15473 2 42.3165 176.735 2.57155 4.15758 -9.29513 13.1834
15463 2 42.1043 1.22766 3.31024 -9.15241 -12.7967 -1.04196
14321 2 43.206 176.639 1.46978 -6.83241 13.6518 -26.5254
14288 2 43.0683 0.621846 0.0540734 23.57 -14.2972 -0.244158
12234 1 42.4857 2.05189 2.64003 7.81674 17.5035 -53.5354
14285 1 43.5672 1.5884 0.422478 -79.7403 -48.2264 6.8577
12452 1 44.4642 2.42972 1.21206 8.55237 45.4099 22.6095
14028 2 46.0176 2.37169 18.3764 3.47224 -11.4857 -4.99306
14029 2 45.5902 2.17382 1.17709 -13.6295 -12.753 8.2562
13978 1 45.7008 0.967589 1.15029 80.0532 -43.6421 39.3672
15450 2 45.5322 0.118292 3.64694 -5.84785 -6.32285 -12.9754
15445 1 44.4924 0.203378 3.98004 19.3462 -33.7977 18.183
14297 1 43.7473 175.781 1.64691 3.5615 37.1447 -19.0278
15433 2 46.3149 175.948 3.09394 -13.4562 -7.98736 -10.2506
15447 1 47.1664 175.677 3.93898 -28.7811 -30.3883 -66.4601
12256 1 48.6141 0.288713 2.64531 45.6092 2.9008 37.7933
12271 2 49.1845 176.566 1.68 4.88907 8.96228 -16.9109
12267 2 48.8669 0.474818 0.50756 17.3741 -13.7829 -11.6159
12667 1 48.501 1.41796 0.888064 -47.6069 -39.3145 -33.9044
14635 1 49.7864 3.46962 3.48489 -47.7349 15.589 52.0853
16593 4 49.1533 2.9714 3.01321 10.6956 -2.27685 0.263157
15251 1 51.1633 176.629 1.43619 33.2499 -47.6968 -16.0604
12429 1 52.8095 2.50565 1.09127 -58.0389 71.6403 -0.585143
9966 4 52.6101 1.71776 1.77747 -11.365 7.35136 -8.25591
14239 1 49.0212 2.33622 3.64819 -122.081 -104.761 -66.6824
16740 1 53.1034 0.0769651 18.5635 -44.0974 -4.66089 -6.20279
14658 2 55.6099 2.71389 1.3281 1.18636 4.40726 -27.3447
14675 1 55.013 3.03739 2.05528 5.64973 -52.5465 -34.3119
14676 2 55.4413 1.78856 0.177753 -0.390146 16.8434 -6.38542
16732 1 54.1247 0.920408 3.63735 -31.4364 13.7825 -20.8452
14167 1 52.2768 0.319979 2.8082 -13.8961 -22.5001 -50.8727
14205 1 56.5536 2.77452 17.2232 32.3859 -39.4692 58.1068
14665 2 56.0359 4.16005 0.850765 -12.9894 8.46938 6.8491
9956 1 57.239 4.01685 0.531503 -42.3595 7.08897 20.0026
14180 2 57.9134 1.95248 0.200612 -17.9438 0.502361 6.40993
14174 1 57.6851 1.56186 1.095 -47.2716 -4.18983 11.0461
14165 2 59.1874 1.41046 18.3693 -18.1242 13.0428 -10.778
15462 1 58.8462 1.49161 2.71313 -7.84149 29.0924 -42.1744
14065 1 61.2006 4.51681 0.652928 33.0415 -25.1387 27.6685
16769 4 61.4178 -0.00839011 2.67974 -0.586155 -19.7782 1.42103
16759 2 60.1865 176.468 3.15472 -4.39759 -3.76045 8.27163
16890 2 59.0758 0.422929 2.86804 9.03012 -17.3543 6.20447
18689 1 60.4777 175.535 3.51804 -19.2114 32.2088 -2.70303
14104 1 62.1532 2.32833 1.66367 -85.7081 -6.84044 28.5625
15768 1 62.1105 0.405266 3.39819 40.0119 -21.4165 -43.2118
14204 2 61.1836 2.58301 1.21356 12.7833 20.3338 11.2699
12721 2 64.975 1.91578 3.50771 -17.0467 6.08374 -5.3203
15708 1 64.5434 1.30887 0.904641 51.4465 1.31886 -39.8675
16866 4 63.7701 0.855792 0.836344 -12.1565 -7.18581 -6.4191
12839 2 64.4468 3.03155 4.27819 7.30019 9.37444 4.63839
12905 1 65.3423 3.39944 4.88033 -85.2615 20.3548 8.11123
18049 1 63.1397 0.977934 1.5522 17.3433 -10.556 -16.8162
12706 2 66.2913 1.65705 3.19748 3.5629 -15.1992 -2.88236
12902 4 67.2443 0.82845 2.76864 6.58882 9.06928 13.7357
14223 1 67.4569 0.815464 1.84034 -96.8646 -7.20739 36.9428
14074 1 68.4567 2.35459 18.1806 115.457 59.2029 6.564
15351 4 66.7864 2.54435 0.624062 16.7063 18.1876 -4.86498
14178 1 71.4813 176.36 -0.0189301 28.5524 43.9684 -55.0957
17691 1 71.4013 1.43352 2.18131 -68.5278 60.0581 10.6535
15925 2 71.5413 2.21905 2.80207 -8.00772 0.393678 -9.16673
18988 4 73.4167 175.873 3.20003 10.5779 -4.73243 5.19974
15946 1 72.3242 2.21461 3.58476 23.9223 8.177 -33.9934
17973 4 72.1937 176.757 0.662493 -22.1724 -16.8278 2.66534
17977 1 72.7951 1.18525 0.581322 56.3241 -2.92627 -13.7043
16554 1 74.7194 0.0942221 4.46965 -34.0862 13.8227 18.3966
17705 2 74.565 176.21 3.66874 8.871 14.1358 9.54924
16884 1 75.4293 1.89743 1.03589 38.1428 51.0468 -38.3163
17715 2 75.4877 2.56006 3.72567 6.18829 -10.2154 -0.836623
17797 1 74.5961 3.07834 3.95682 45.2364 14.4784 -20.8413
17692 1 72.9538 2.80069 18.3462 14.1677 -18.3012 -17.4156
15764 1 69.6399 2.24808 2.49342 -21.4658 34.2486 60.5896
16018 2 74.402 2.29815 1.30442 7.49754 -6.70478 12.4724
16094 2 77.4961 3.0699 1.37939 13.7487 -12.6139 7.4946
16136 1 78.7844 1.21046 1.6569 -21.9954 18.7863 23.0021
17031 1 79.0742 0.710116 3.64299 -58.73 -5.01422 0.415473
16108 1 82.3187 2.10326 2.06181 -74.4427 -73.8623 -21.3016
17069 2 83.5652 1.6796 2.09754 18.9415 8.35615 -16.1742
17332 2 84.4842 2.67374 1.5759 -20.4979 -33.1681 -4.56564
17066 2 83.9178 0.397205 2.11432 12.6382 3.17895 20.4797
15772 1 84.9058 0.235701 1.41262 86.0684 14.457 -93.7548
18027 1 80.7654 2.04007 -9.19675e-04 35.4666 -77.1808 -59.2564
17479 1 86.3543 3.62153 1.58576 50.9443 -1.18746 46.8299
17029 1 85.6877 1.39943 3.75243 66.1414 55.3979 -8.01009
16918 1 83.3666 0.80942 5.38071 26.2106 55.3825 19.0485
16196 1 84.6524 3.23655 2.40468 14.8691 46.3952 23.5248
17104 2 87.2743 2.87523 1.77617 -2.52766 -16.4759 9.19722
15927 2 90.904 1.34254 4.77977 36.3007 13.6859 1.46246
15940 2 91.0878 2.23766 3.60374 -5.89151 -6.02248 -6.97237
15933 1 91.9336 2.19802 3.16978 10.9265 -30.3355 23.1708
17188 2 89.4343 0.237801 2.13037 -4.42398 -18.9601 -34.6569
17205 1 89.9419 0.778241 1.21468 48.3716 37.4776 37.7651
17125 1 92.7263 4.35675 2.21422 32.0974 -8.33154 -29.2505
47706 1 91.9071 5.72613 1.98032 -24.2187 14.2976 89.4124
17133 2 92.7818 5.42968 2.67575 3.04664 -10.7785 -8.68309
18384 2 92.9181 175.888 2.98527 7.37576 1.27275 -4.89966
20599 1 92.388 175.81 3.96388 5.04884 -63.7114 1.74574
18375 1 92.4102 176.605 2.42983 -29.1149 0.575381 29.6914
18595 1 92.5881 0.57337 0.399372 -94.7688 -8.69549 -61.2384
19303 1 91.7009 1.82256 1.37189 -34.3843 9.12447 22.3328
19291 2 92.6388 1.76214 0.535183 3.04639 8.39217 3.35833
19296 2 95.5799 2.40842 3.28561 -9.26661 -10.4826 0.735774
19294 1 94.9757 2.19635 4.12892 13.5331 -11.2441 -60.2185
17100 1 95.8387 1.35712 2.69555 15.591 9.92083 -13.3712
19620 2 98.8661 1.0945 2.60763 -8.2087 -6.5475 -14.3457
19119 1 97.4528 174.792 4.56657 -22.0009 -76.3237 23.314
18480 1 97.1214 1.32912 18.2037 -23.3701 27.9954 -93.1799
47550 1 100.423 2.74788 2.00116 -87.1598 -12.9504 -33.7529
18208 1 100.053 176.405 1.55056 39.6038 -125.657 -32.4814
20586 2 102.956 3.16993 1.32073 -4.60652 2.52687 -4.29282
18150 1 103.995 2.68645 1.44858 53.0478 -40.3559 67.8941
19596 1 105.597 176.766 0.514197 -2.08253 4.67257 18.512
20757 2 106.295 2.0512 1.06755 11.5874 4.03902 12.6841
20758 1 105.923 2.7931 1.92582 -18.3604 52.0671 -65.7527
20864 2 105.392 1.00096 0.866633 -7.0392 6.52848 -12.7919
19214 4 101.753 174.515 0.6795 -2.6879 1.44402 -21.2065
17173 1 105.885 0.893386 5.19487 -8.42684 -8.81064 71.2781
20828 2 107.796 1.78006 0.804396 -15.8298 0.977982 3.90211
19603 1 108.181 2.7702 1.03505 -8.76939 -33.7929 -91.7598
20532 1 108.002 1.73436 18.3202 33.1452 1.5505 -37.6995
20733 1 110.425 176.297 1.40317 -35.9634 -21.6657 -64.4836
19758 1 105.845 4.26299 2.93534 2.04684 -4.24416 26.343
20819 1 108.198 0.773917 1.19679 94.0521 -20.9341 -24.4769
21787 2 110.415 176.554 2.49507 -24.4083 3.66106 -12.579
21809 2 111.369 0.822947 2.60543 -11.9258 -1.64423 12.2521
47503 1 109.555 2.85517 17.8744 10.2376 -22.1013 37.8964
20656 2 111.011 2.13693 2.39555 6.10097 11.1746 -18.4543
50621 1 109.608 1.07727 17.4273 55.5496 15.0298 -5.55383
20790 1 111.677 3.04475 2.49948 -19.9157 -16.8392 23.2681
20556 1 109.919 2.41269 2.00885 44.5281 -52.6838 21.766
19653 1 112.68 0.11698 0.316456 -5.33426 -17.0034 -54.0853
20807 2 114.865 2.09086 1.20268 0.402953 -8.1769 7.86127
20615 1 114.44 0.996062 0.755264 -8.77758 7.19351 16.2811
20918 1 115.797 1.53984 1.41737 31.1476 49.8606 53.1387
20563 1 111.466 4.77966 5.7242 -37.7008 -17.8027 12.2811
20520 1 113.867 175.572 1.03352 0.548528 28.5248 -24.3946
21908 1 113.386 0.663907 4.19744 9.30767 -116.826 63.2684
21158 2 115.05 4.4289 1.28998 5.28898 -20.7603 -10.0944
21125 2 114.466 3.21328 1.96922 -14.1945 -21.4073 11.7447
21940 1 113.603 3.4857 2.66641 -20.5125 6.24184 -18.1619
20801 2 118.549 2.03436 1.21824 -3.99382 -15.4966 11.0599
19504 1 117.416 0.588634 1.47395 -39.405 5.16178 -38.0489
19663 1 119.647 0.68563 -0.0262689 57.6156 -59.652 -61.449
19617 1 118.373 2.53506 2.23568 84.8984 -26.2835 -11.9882
19549 1 119.179 1.96743 6.45498 35.9452 -0.674819 -22.1486
22011 1 118.432 2.07925 3.84696 -22.1661 -96.9988 9.81906
19487 2 119.357 1.59866 4.36596 5.70866 -6.2748 -14.087
20812 2 119.355 0.986922 0.904355 4.42116 -1.01947 11.7424
20744 1 120.155 1.05991 1.5264 -52.6638 -10.6754 34.384
19488 1 120.277 1.02318 4.11972 12.1433 8.85445 -46.5784
20884 1 120.951 4.1779 3.58227 14.7967 46.7362 1.07162
20666 1 121.002 2.12095 18.2799 -15.5338 -41.3674 60.3494
20533 1 126.257 176.066 15.908 17.5557 -10.4135 -7.80703
22086 2 128.368 2.78133 2.749 -6.39167 -3.50114 4.20929
22088 1 126.511 3.45081 2.50404 30.4129 53.7159 -15.3568
22090 2 128.277 2.71557 1.23154 -42.7375 -14.9001 -17.3918
22094 2 127.166 3.54642 3.3273 18.9475 -6.84355 -27.7852
22082 1 129.357 2.81673 3.25293 -30.3398 -19.4714 35.4504
19605 1 127.448 4.72102 3.30844 -8.7444 20.7411 -28.4667
22078 1 129.116 2.98718 0.483824 43.4362 142.729 25.7175
23874 1 122.876 3.42435 17.9729 55.9151 -4.48011 2.1662
22085 1 127.967 0.614112 1.68433 60.4818 -16.4126 6.8351
22087 2 127.794 1.59542 2.08805 -22.5734 -8.78905 2.73941
22081 1 126.903 0.962638 2.36928 12.0589 -22.0563 -12.031
22151 1 127.545 3.42268 0.791763 62.4041 10.0548 20.0811
24275 2 131.65 1.86141 1.03327 12.7547 2.26352 2.15407
22427 1 130.65 1.28861 0.997069 -40.8659 -54.2382 -26.2719
24325 2 132.17 2.92225 1.7358 -19.668 -6.23385 8.08617
24359 1 132.875 3.67907 1.50616 0.937488 -25.9413 -29.9374
24305 1 131.699 2.89916 2.63952 -11.4208 -46.6833 -64.4704
24291 2 135.414 0.417011 0.148803 -11.6435 6.99407 -8.81494
23904 1 136.284 0.636136 0.893621 28.7389 -44.7308 15.1806
23698 2 134.296 1.33929 3.61718 -8.52928 10.7855 1.31537
22428 1 134.406 2.38358 3.31966 88.7869 -52.4176 -22.4649
24285 1 135.105 1.78638 0.121924 10.3924 31.6431 -8.85393
23713 1 133.917 0.244787 2.12536 69.3266 4.86917 10.9897
23694 2 133.445 0.145248 3.15016 -6.59186 6.75788 -6.24286
24037 1 135.447 1.24222 3.82826 25.4683 11.9795 28.8579
23885 2 137.529 2.54747 2.69972 -6.2488 -9.81976 3.10524
23883 1 137.936 1.98336 1.73021 17.2702 -28.9983 27.2178
26612 2 141.058 1.04401 0.0669057 2.68185 21.5264 -14.4377
26618 2 141.581 1.20534 1.51981 17.4359 -7.74978 -9.10755
26690 1 143.504 2.15066 0.812914 15.9927 -1.48669 11.0062
26363 1 141.063 1.10661 2.47788 5.50028 -11.1112 -17.4235
30565 2 143.74 176.42 4.05082 -0.430971 4.84204 -6.10012
30579 1 142.673 176.46 4.38723 -35.2961 56.6822 4.60431
30568 1 144.807 176.751 1.53654 38.6214 -13.0152 -80.8803
24292 1 145.944 2.5297 1.99293 -22.1034 23.7951 15.893
26693 2 144.547 2.5007 0.675974 2.12399 5.38116 14.4049
26686 2 145.125 3.3635 1.84398 -4.40289 1.35946 -13.4699
26689 2 144.741 2.90538 17.998 17.6813 -9.63855 14.033
30684 1 148.253 176.722 1.65419 -0.765488 -45.6911 -41.8982
30938 2 148.032 0.971007 1.36947 -9.61699 3.4788 1.24375
30807 2 147.541 1.22048 0.112278 6.48123 2.43812 -2.87188
26762 1 146.834 1.01208 3.54816 -33.3743 7.26649 -9.93848
30778 1 146.647 0.553831 18.3633 -21.4177 -48.11 -3.62206
30761 2 152.139 1.85315 1.91315 0.675039 -1.69578 -6.11845
30762 1 153.089 2.28953 1.46089 40.0426 -34.0013 18.8576
30832 2 151.575 1.06419 0.834541 11.7491 9.60519 19.6644
30868 2 151.685 2.06512 3.07209 1.22009 -1.17326 -6.30975
27111 1 152.089 0.123992 0.703091 39.9223 37.9297 6.91443
30879 1 150.787 1.5645 3.63164 -23.5824 -83.9253 -17.3192
30876 2 151.959 3.26655 4.11212 -16.6641 -4.57233 6.58722
30872 1 151.198 3.86076 3.36874 20.975 -7.02577 32.7631
30877 1 152.024 3.12157 5.07718 -0.456245 20.4063 27.2549
36018 1 157.05 1.65597 5.01826 1.57054 -12.335 -21.8173
27108 4 153.854 4.72502 2.21527 -16.8971 9.47485 0.170737
36003 1 156.198 0.415066 2.70935 -7.44103 -21.8708 -29.7176
4816 1 157.39 1.03598 2.4049 33.6383 -26.2285 14.397
5034 2 159.989 2.19907 1.254 1.91443 13.0049 21.1557
5036 1 159.243 2.94172 1.73034 -2.81525 12.0865 46.8329
5023 2 160.117 1.32937 2.44878 -0.0692 2.5681 -14.7129
5040 2 160.967 1.81751 3.51256 11.0635 -0.228281 -4.83524
5026 1 160.131 3.70369 3.40358 -81.0138 29.8152 47.1927
5035 1 162.02 1.48835 3.37785 50.6987 28.5066 -24.8964
5022 1 161.852 3.6209 1.42437 -35.7243 44.7159 -34.2029
26867 1 156.387 3.35941 2.95724 -28.8309 43.6277 -12.0787
5024 1 159.408 1.63962 0.638276 40.4787 66.1588 -36.4252
234 2 161.391 3.01942 0.528674 14.6533 7.77975 16.5502
5028 2 160.891 3.22536 4.06522 2.72685 -15.3629 -2.81771
4879 4 163.657 0.816716 2.19634 9.87283 -0.939192 3.01009
35897 1 163.875 1.17147 3.01258 -1.43876 -21.9977 2.73868
30992 1 163.975 2.99161 4.4074 -48.3645 -31.1859 22.0665
35890 1 164.467 1.09028 1.59812 57.9438 -9.55285 2.24294
31053 2 167.636 2.98513 1.42537 3.66723 0.762154 -3.1386
31057 2 165.589 3.00081 2.96735 -25.8551 -0.352917 9.19249
31064 2 166.185 2.641 1.49644 1.67011 -3.22251 12.006
31152 1 166.18 1.6295 1.39034 8.7211 -0.894847 -33.7351
31067 1 165.616 3.30475 0.937828 8.26486 -8.87277 9.9773
31103 1 1.83573 1.53792 3.40914 -8.13506 8.36122 -4.86483
36124 1 167.533 0.138875 4.31069 -31.8916 -8.32075 52.0743
5060 1 0.142203 3.58924 1.86713 33.6541 24.1184 -27.2454
35876 1 1.31237 4.14849 3.59774 -28.5289 -22.4916 12.9729
31069 4 168.156 5.53211 2.03946 -8.16986 10.4627 -1.48648
31077 2 167.696 6.25708 1.11575 -7.26955 5.31835 -23.3652
11 1 168.162 7.18758 0.547607 -11.9883 1.75469 -1.00955
134 1 1.55724 6.66996 0.465923 -23.767 58.2909 -32.8897
4838 1 5.14177 3.72699 1.495 -1.64671 46.4512 -54.7992
204 1 2.60539 5.66065 2.77956 -48.1079 -0.468085 -166.091
4846 2 5.1599 2.63798 1.73403 11.6714 -20.1462 -10.3875
31116 1 6.22627 2.05257 1.75224 11.3298 -36.868 -57.9732
107 1 6.02269 5.54212 2.86079 25.6137 -28.3579 7.18844
5067 1 5.74506 7.10081 0.646914 8.95548 -10.5008 -27.7418
31093 1 6.21989 5.03418 18.1827 -51.0535 -14.7386 -22.9752
31101 2 6.35978 7.07879 18.3594 0.393121 2.63204 0.739741
9022 2 7.96907 3.80239 2.13922 4.15409 6.88836 13.8996
9035 1 7.57409 4.61853 2.70089 -13.799 -30.7281 -77.7306
31083 2 7.84231 7.07091 18.2988 9.50552 -4.845 -2.81877
325 1 8.24035 6.81219 0.649138 -43.1827 57.2892 16.5847
31094 2 6.62532 5.87536 17.7543 -13.4625 5.59035 -20.6981
8999 2 10.9719 4.10028 0.312783 2.99496 3.98478 -6.21772
9016 2 10.1693 4.62785 1.35283 9.96094 10.0191 20.1838
149 1 12.0564 6.66377 0.828468 9.4389 14.1583 25.3758
158 4 10.7507 7.54563 1.89056 -1.33795 -24.1782 16.9811
9011 1 10.1612 5.69075 1.37745 29.2807 -14.5633 20.4387
5178 1 14.3028 5.7343 3.35021 -11.4828 -19.7321 53.3322
9013 1 11.8051 4.86264 0.222344 -17.8864 2.90845 7.15914
210 1 14.2095 5.57488 18.3097 -52.3411 45.9578 -16.8378
202 1 15.6963 5.71409 0.256825 31.4493 -7.62051 -9.08481
9264 1 16.8248 3.65078 2.37226 -43.6822 26.6843 -41.917
5539 1 14.4082 7.10627 0.885699 66.8147 -52.7268 30.9884
9255 2 16.6235 4.06103 3.4092 -1.51877 12.9571 1.98144
9133 4 17.8865 6.53378 1.92681 -3.81399 7.28763 -12.4738
9419 1 18.7064 4.70354 1.36283 16.3745 4.61961 16.485
9134 2 18.5419 6.56673 2.88681 11.8297 -3.60352 3.54233
9344 4 19.2231 6.36816 3.79674 -0.718087 -0.0752547 1.42551
5531 1 21.2054 5.02273 2.0382 36.2902 -85.2811 -82.1406
9223 1 18.3332 4.48688 18.1002 -62.7054 -24.1739 8.46359
5585 1 23.4312 5.56577 0.490199 34.1584 80.4288 -13.5374
5512 2 22.5723 5.06921 0.718941 -11.946 -23.0284 -2.51206
5532 2 22.2031 5.5729 1.97923 8.95051 -16.3168 12.4495
5535 2 22.5349 6.25832 3.05184 19.8394 6.7056 -18.3881
5528 1 24.9405 4.36207 3.51611 17.8723 -85.1514 69.3395
9413 1 27.366 3.53761 0.649209 23.0994 -40.8884 -70.969
11817 2 28.2158 2.99629 1.09686 13.416 22.4547 12.7372
9478 2 26.7634 6.24925 2.54711 16.218 1.45748 12.1229
9438 1 26.5141 6.09638 1.43989 -21.5678 -42.2948 -30.9717
9459 1 27.5728 5.71777 3.07188 91.6794 55.9593 -50.7852
9444 1 26.1195 5.43765 2.90066 6.09475 27.8875 -24.3709
11810 2 29.4846 3.10617 0.372723 34.3644 -16.1676 16.8688
11820 1 31.0621 4.55132 0.301472 10.5953 27.4906 -19.8492
9807 2 31.5265 5.19096 2.4499 11.4439 -1.06663 11.9941
9493 2 32.6028 5.49572 3.60593 5.41011 -10.6213 -3.65078
12296 1 31.6146 4.09339 2.54956 -24.7407 24.3337 12.0822
9792 2 30.1904 5.56009 2.66822 28.8544 -18.2254 -5.78784
13897 1 29.7779 5.07154 3.50607 -2.92475 47.9295 21.3339
12430 1 31.8372 5.56643 1.38524 -45.9975 -15.6494 -25.0438
9499 1 33.4058 3.92869 2.6509 72.3263 -16.3064 -21.24
9506 2 33.6658 4.75913 3.35865 17.7883 4.05696 15.0585
13684 1 33.9031 6.76359 1.83305 -28.2019 -73.3646 86.2599
13917 2 35.0554 6.82377 1.93359 -2.17403 5.07518 14.3959
9586 1 34.003 7.10902 4.55048 -39.5164 -49.2148 32.3507
9582 2 34.6339 7.9566 4.19157 4.6521 -16.0136 4.95293
12187 1 40.0648 2.88425 1.84865 15.7713 -50.6688 1.38152
13928 2 35.5815 7.59063 3.13734 11.8094 18.7292 2.58415
12069 1 36.0153 8.66981 2.61884 50.2294 -29.6585 -35.2021
12327 1 36.354 6.69778 3.79827 23.4029 67.4591 -23.4339
13932 2 35.5999 5.59555 1.2098 -15.9904 21.6596 -2.86474
12237 1 36.1819 5.57953 16.6228 -54.6191 -14.8631 -71.7706
13924 1 36.4042 4.94525 1.71955 1.62663 -29.4206 -45.1111
12197 1 38.6898 4.1853 17.3793 18.7588 -29.587 -11.7105
5331 1 40.1282 3.75552 17.8238 -36.8051 87.6712 6.78645
12323 1 41.4767 3.13379 0.127057 -98.2783 -46.3392 -81.2854
12329 2 41.9977 3.75665 0.743391 -9.25648 -22.8702 -24.7617
12332 2 43.2198 4.05685 0.222031 -10.0402 9.09542 -7.07945
14022 4 39.37 4.18866 18.1672 11.8163 -15.5796 -8.597
14034 1 42.8543 6.17882 0.165868 9.92179 -22.4122 -44.8771
12320 1 44.1706 3.56558 18.4966 22.2663 -35.0321 -64.1209
12328 2 43.5453 5.36386 0.486692 16.3275 -12.8035 17.1529
12336 2 44.0936 5.84037 1.54556 -3.48698 -11.1056 0.745511
12446 2 46.4941 3.05023 1.43391 9.10549 -0.682743 19.4167
13948 1 47.0862 3.54365 2.05232 47.7721 -8.41101 -28.7647
12454 1 45.8689 7.18496 1.46706 -21.6105 -13.8451 -62.0986
12463 1 43.5389 4.39426 6.27763 0.0442711 -17.3183 -38.1563
12355 2 43.8422 4.1351 4.16246 -7.35676 -5.49023 1.18018
15437 1 48.0925 5.24258 1.52229 7.36433 -0.997561 36.7682
14280 2 48.7695 4.62311 0.989607 4.50998 -6.94766 -14.5078
14163 1 46.9954 9.24109 3.97094 64.6872 -43.7915 51.7824
14407 2 48.6582 4.86456 18.306 16.0285 -0.890107 -9.69598
14298 1 49.9138 4.11247 0.9339 97.8504 1.64629 -18.0187
14435 1 46.8879 4.51728 4.31451 -50.0005 -43.8592 -13.773
15583 1 49.8515 6.86523 1.5786 17.0111 -5.79574 11.5691
12474 4 52.0436 4.29381 0.735669 5.91601 1.97466 3.33457
12252 1 52.1395 5.14208 0.435201 -20.3192 -17.999 -0.697747
16888 2 52.453 4.28193 1.93775 -2.94847 -10.7776 -20.8625
16876 4 53.4438 4.23186 2.61108 18.3235 7.29015 -13.332
14419 1 54.0154 5.41415 0.570782 33.5881 -86.7554 16.2764
44190 1 53.2325 8.0204 18.1768 -16.015 41.8987 -43.6408
14429 2 55.1432 5.09816 0.41358 -2.37059 1.49131 10.9529
14424 2 55.3232 5.80459 17.8391 13.1717 -4.21636 -12.3504
14673 2 56.4528 5.6602 4.85109 -5.44572 1.46621 -2.07319
16861 1 58.0203 6.24945 1.54185 -107.355 -18.1122 4.75253
15266 1 55.8838 4.72326 4.68944 -77.3811 -50.6947 19.7469
14089 2 59.4377 4.44277 1.42449 -1.32983 -33.2493 -12.8634
14160 2 58.7201 5.59032 2.01416 8.59658 -1.1179 -12.8058
14090 1 58.9634 3.91457 0.620495 43.8958 -46.5512 86.8178
14789 1 62.6043 6.27174 4.39196 -24.8611 -5.30594 35.9789
14196 2 60.9862 4.06005 1.44048 -19.1954 -13.0948 -2.4431
12845 1 62.65 4.12263 4.0045 -0.757935 49.7686 35.4255
17709 2 63.5625 6.75984 0.561924 10.055 -15.1436 25.7669
15965 1 64.5401 7.01981 0.598387 0.461443 20.2645 38.2899
17724 2 63.2794 6.30031 1.71882 -16.5148 6.19654 -10.1669
12852 2 63.0905 3.31574 4.66345 -11.4238 12.683 3.78062
15935 1 65.2142 5.94996 3.32342 35.5023 -6.54466 28.0684
15776 1 66.2768 4.47692 2.07199 -5.07026 44.7044 45.2967
16220 1 67.2095 5.57856 0.853427 -26.5379 18.0593 -45.0722
14486 2 66.4446 5.46289 1.86431 2.39405 -22.8842 12.2331
16886 1 65.291 5.74613 18.1524 -18.479 -5.94569 51.1238
17738 1 69.063 8.50191 1.87455 50.8546 38.9504 -43.7613
16972 2 65.8818 6.46142 2.53179 13.2674 7.44724 -1.60607
15908 2 66.5244 7.69143 2.58025 0.0763197 -13.1107 4.45006
15781 1 72.2861 2.97002 2.2909 26.5062 -56.8316 -38.2974
17710 2 69.4715 7.47805 1.79839 20.5538 -10.8222 -1.91727
17904 1 71.237 4.76333 1.2182 7.28987 53.2811 -18.6999
17799 1 70.1534 3.36293 0.575312 -0.589689 7.62916 -3.43119
17129 1 73.7523 5.84022 3.56166 3.67829 25.6926 2.09261
15932 2 70.2516 3.02616 3.3056 12.2808 21.5267 -7.35265
17919 2 70.6369 4.33811 0.363307 -2.13135 -6.38979 -7.59687
16934 1 72.7874 5.86548 1.98773 -9.19606 7.61678 -56.7381
17132 2 73.6832 6.25845 2.54571 -8.31682 -7.37174 18.4132
17718 1 75.5149 5.10669 4.67751 1.419 114.386 2.18022
17165 2 74.6272 7.01883 1.77647 1.11137 -0.549302 -22.8988
16173 1 74.2711 1.42539 1.84915 43.1083 -31.8466 -38.6316
15743 1 75.631 5.53817 17.8885 0.989332 -15.1568 -6.4853
16084 2 77.4305 3.76716 2.6459 8.08343 7.73586 5.69732
16949 2 76.5183 3.65218 3.72921 11.4487 -1.19833 -5.44451
16087 1 78.3112 4.42008 2.84003 -13.3703 -17.9686 -76.6037
17384 2 76.4977 4.93229 4.35186 -21.358 -9.75215 5.39598
16023 1 79.4403 4.67094 0.934255 38.0736 19.242 -25.5538
16026 2 80.1797 5.50111 1.13065 7.34561 -13.9755 -15.0629
16194 2 79.4348 6.49128 0.687833 26.585 6.45191 -18.6219
17053 1 77.314 6.41113 2.88708 -46.2097 -29.7519 12.3173
17178 1 83.1536 5.69657 1.71781 -10.593 27.979 -100.423
17174 2 82.7814 5.14555 0.904653 -19.1388 -4.65171 -8.89741
15954 1 80.229 5.45792 2.29201 -69.6128 -47.565 22.1836
17345 2 83.4217 3.75377 0.591474 14.3535 -8.40303 3.35934
17090 2 86.7892 1.70965 4.08121 1.72858 -6.97471 10.3806
17084 1 87.1089 1.53742 5.20117 103.664 -3.47487 37.9147
16966 1 85.3856 6.12467 2.45562 -113.681 27.6936 -35.496
16998 2 87.5016 6.46844 1.22729 0.942747 -3.63297 -10.5596
19328 1 87.9316 5.55946 1.79684 -14.4774 -4.48498 18.4324
17095 2 87.5921 2.39911 3.13031 26.1952 -16.4821 15.439
17966 1 88.7251 2.65194 3.39107 -52.4261 2.07188 -18.1724
17001 1 89.722 4.93589 2.74549 -7.99803 -48.3199 8.42888
18300 1 89.8883 4.25668 0.0601797 -58.8202 19.8719 -20.0233
17130 1 92.7688 7.6052 1.59557 27.2757 -5.612 -8.08956
16994 2 92.2949 7.98915 2.55819 -1.31948 1.16076 -0.489992
19340 1 93.9991 3.66719 2.97513 0.753942 -4.50096 -9.49165
17254 1 93.9671 5.89748 2.78308 82.5122 34.7202 -17.9949
17478 1 92.8363 6.67508 17.3671 31.6345 2.78381 4.24426
18584 2 93.3567 6.13453 16.8164 3.6356 -1.85367 18.757
16945 1 93.4805 4.92035 5.61454 -49.4766 76.1942 8.08208
19300 1 95.4553 4.31305 1.93828 -52.5988 -10.5716 -17.8185
19308 2 94.8597 3.45705 2.32234 -2.93058 3.06173 13.4972
17472 1 94.7943 2.95453 1.25081 6.97066 27.1724 87.0931
19624 1 97.9787 1.14633 1.98807 32.7853 -30.0966 26.1557
18624 1 96.8989 3.34966 1.4697 -36.7273 -56.3788 -5.49793
19623 2 100.259 1.65871 2.08011 9.18076 -13.0934 1.06409
19432 1 101.185 1.09821 2.22107 48.6201 16.1733 -65.655
18496 2 99.1779 6.9959 1.69216 7.68279 10.8542 0.304218
20785 1 100.874 6.69708 6.15718 1.2869 51.6043 -21.4307
19630 1 100.496 1.54235 0.945094 -28.4843 -24.9876 -15.8707
17463 2 99.855 6.56545 0.803448 -6.37949 -6.21236 20.4597
20600 2 103.647 5.01282 2.88826 -23.9026 5.90035 4.62506
20596 2 102.651 4.22871 2.148 0.326549 17.0492 -18.3791
19677 1 101.876 4.87474 1.68363 -30.6919 -52.4554 -24.4666
20576 1 104.964 8.77307 6.73935 29.7219 45.6734 22.4239
20592 1 104.001 5.76111 2.11673 -15.2856 47.772 -64.7441
20585 2 104.331 4.97596 4.03526 -6.61905 3.13332 2.74408
20784 1 103.959 5.0803 4.95749 126.46 -48.9729 -29.5628
20161 4 105.198 5.62911 0.627425 17.3259 -2.72106 11.4675
20723 1 108.757 3.65697 2.37703 -77.8156 4.89656 31.7072
19640 2 106.328 6.07623 0.363251 10.3382 -9.51187 -3.81952
19779 2 107.623 5.40791 0.307305 -16.1169 9.09239 14.4621
19828 1 106.419 7.1511 0.676954 -14.2797 -16.5009 73.412
20741 2 109.094 4.0746 3.31464 -1.05445 7.98899 5.9123
20726 2 109.201 6.76173 3.81702 -2.19968 -15.1895 21.3494
20730 2 109.314 5.41195 3.59297 -18.5526 33.2835 0.335177
20729 1 110.193 5.25888 2.89476 -23.8355 -86.4247 49.2797
20518 1 111.733 6.86625 4.40517 -26.6924 -153.153 12.6094
20987 1 108.373 6.24135 0.607826 -1.16977 -56.8145 28.0907
19789 1 110.649 5.35485 0.663435 -37.7759 46.1469 -4.3254
19439 1 112.121 4.53277 1.17293 44.1995 -23.595 2.36425
19452 2 112.25 6.14492 2.41444 9.6862 7.24705 13.9229
21120 1 112.383 5.88762 0.164275 16.2221 -14.3329 22.2425
20604 2 111.734 5.59014 0.980868 -2.08487 -0.293112 -3.63221
20547 4 112.883 7.3218 2.29027 28.8769 12.2476 -4.85699
20584 2 111.809 6.01263 3.75211 -14.6415 15.9012 5.34592
20608 2 111.682 4.94639 4.71596 3.40297 22.3276 4.54367
20868 1 114.304 4.61269 0.569139 -9.6028 -10.5149 -9.84249
20862 1 115.889 5.77008 3.49674 -81.9123 -5.28921 -96.5283
20756 1 114.157 5.34961 3.16123 -26.3658 -17.8588 5.834
20760 2 114.888 5.78633 3.76265 4.89705 -14.7698 -6.43356
20865 1 118.641 6.40176 1.44406 62.0422 28.9096 5.03618
20826 1 116.879 4.2124 2.15834 -37.5404 17.9391 -33.2166
20817 2 116.44 4.33952 1.18871 -23.2357 -10.548 10.0034
22313 1 121.166 6.00421 1.72452 -86.489 -37.2463 -55.6819
19449 1 120.014 7.25806 3.45402 50.9337 -17.3792 14.9984
20612 2 119.842 7.29217 4.47004 7.01421 -9.56407 2.75541
20501 1 119.162 4.50293 3.05957 34.8832 3.17892 27.7507
20809 4 119.21 4.97022 2.2362 -20.7405 -13.5402 -8.00715
20598 1 119.069 4.42961 1.5254 -29.9648 -30.5409 19.388
23924 1 122.997 5.77317 1.90377 49.1436 -34.1379 26.8076
23905 2 121.92 4.78785 3.39947 19.2369 2.36684 -4.09012
23915 2 121.949 5.4716 2.26298 10.0925 5.49064 2.42481
23896 1 122.784 4.47289 4.01565 31.4149 79.0946 -15.9043
22498 2 125.06 5.5027 2.79863 -3.19394 1.90689 1.70449
22133 2 124.623 6.38158 3.81751 5.21805 -5.70354 -5.10624
22142 2 127.143 8.48165 0.245653 -6.85193 20.7107 11.7943
22134 1 127.224 7.69926 17.8971 -27.8978 27.6815 -1.14215
22114 2 125.674 5.64693 1.60437 2.6703 0.444764 -12.1995