ITEM: TIMESTEP
0
ITEM: NUMBER OF ATOMS
15625
ITEM: BOX BOUNDS pp pp pp
-13.7473011017 13.7473011017
-13.7473011017 13.7473011017
-13.7473011017 13.7473011017
ITEM: ATOMS id type x y z
1 0 3.7339451313 7.556040287 -1.9405889511
2 0 3.6345374584 11.8235635757 -4.8671712875
3 0 10.8591413498 -7.5396785736 -10.1732244492
4 0 6.966843605 -12.6452264786 -7.9183683395
5 0 9.3564214706 2.5355889797 -1.9381164312
6 0 9.4700145721 -7.7574048042 6.8373436928
7 0 -1.3236402273 -3.3685724735 1.307068944
8 0 -6.4229941368 -7.0450363159 12.7465658188
9 0 10.2341995239 -6.2265701294 2.935179472
10 0 2.7203865051 5.5276675224 -10.7478561401
11 0 -5.108628273 1.0300190449 3.9295902252
12 0 -5.2707133293 6.715698719 2.5950841904
13 0 8.2206697464 -5.5709571838 7.0297064781
14 0 4.1889133453 -11.2164115906 3.3626823425
15 0 10.3136396408 11.4708719254 7.566485405
16 0 11.4754076004 9.4854383469 3.2721786499
17 0 1.7826044559 13.5424699783 -2.1901638508
18 0 -5.3823485374 -5.1392493248 3.2840676308
19 0 0.883925736 -0.2872852385 -3.0688478947
20 0 2.4744186401 5.9636545181 8.2380447388
21 0 4.6558184624 13.5843992233 6.4344120026
22 0 -11.6627426147 11.7741413116 9.4061880112
23 0 -7.1383543015 -1.346727252 0.4135990143
24 0 -5.1949019432 11.6555662155 10.7728872299
25 0 -6.4168095589 1.350430131 7.4781618118
26 0 9.3047962189 -13.1370677948 -10.6711912155
27 0 7.7660360336 5.1392745972 -10.2346839905
28 0 -5.2618584633 13.6926927567 -12.896821022
29 0 5.8883333206 5.0869064331 13.4649009705
30 0 -2.4800419807 -8.6483020782 -7.2311496735
31 0 5.5839447975 -6.5140399933 5.0812468529
32 0 -9.467042923 -3.8296172619 8.2663450241
33 0 5.6436862946 8.0712003708 10.8612594604
34 0 -13.0073204041 8.8976202011 0.3056999743
35 0 -4.8855438232 10.2224140167 2.5562734604
36 0 -6.0969882011 2.7897310257 1.5101989508
37 0 7.7403869629 7.0079965591 13.1843185425
38 0 3.5707173347 -7.7121300697 10.8260345459
39 0 -7.0658679008 -0.3325166106 3.2705662251
40 0 -11.2561645508 -7.9128684998 6.1090307236
41 0 3.2768912315 -3.2177705765 13.7250442505
42 0 5.4562225342 -9.5005321503 -1.5778563023
43 0 -12.5646276474 -11.9318857193 2.5264041424
44 0 7.6543483734 -13.69389534 7.3897299767
45 0 -0.818985641 -5.9758515358 -1.1548798084
46 0 5.9861307144 0.7199233174 8.638885498
47 0 -7.0743904114 9.557226181 -5.235648632
48 0 -11.1372117996 12.7929401398 -5.0370674133
49 0 -2.0561928749 -5.2678513527 -13.4982652664
50 0 3.4208235741 -12.9658584595 6.744987011
51 0 -12.211892128 -4.4215121269 4.9041695595
52 0 4.7309956551 7.0726323128 12.5224456787
53 0 -1.5751440525 1.2079832554 -10.4615192413
54 0 6.2760572433 13.5370798111 6.2972283363
55 0 -8.8441848755 1.6841353178 1.1789246798
56 0 10.3775405884 13.1079874039 -6.3297286034
57 0 7.1792030334 -0.7599079013 -3.7636120319
58 0 0.2017530948 4.4984412193 13.6872529984
59 0 -8.9878454208 -4.3698577881 -11.3679094315
60 0 1.209414959 4.9772500992 4.2626085281
61 0 10.7404289246 -6.8535017967 -5.2002048492
62 0 -13.1571083069 0.7724916935 2.6151723862
63 0 10.2332525253 -3.3182616234 -1.4769226313
64 0 -3.0882918835 7.5641355515 8.724196434
65 0 -7.6611499786 10.6994190216 -13.2993488312
66 0 8.9027805328 -11.4291296005 3.404157877
67 0 3.9318323135 -2.5657453537 11.9928779602
68 0 12.8122940063 -6.3557295799 6.5449376106
69 0 10.6508817673 2.0173637867 11.9126062393
70 0 8.3052368164 -13.338186264 3.0275268555
71 0 12.0342321396 -0.1204620302 13.1733732224
72 0 -9.8731517792 7.9043107033 -13.6290073395
73 0 11.5170450211 1.0936076641 -11.0297193527
74 0 -11.8345918655 -7.2345924377 -12.5251922607
75 0 -12.1881284714 4.797188282 8.4705095291
76 0 -4.1827554703 2.8271944523 1.3172445297
77 0 6.8804073334 -0.9213326573 1.3746168613
78 0 -1.0491211414 -8.0060806274 -9.4192085266
79 0 11.3971061707 -6.5775413513 -3.0286955833
80 0 -12.5024576187 -1.7910983562 6.8835697174
81 0 -10.5656280518 -10.8391962051 3.4240036011
82 0 1.5840009451 11.5510063171 6.873714447
83 0 -1.745990634 -2.46788764 -2.0767493248
84 0 -2.8940653801 9.519654274 -5.2414679527
85 0 -7.3623323441 -11.8870277405 -6.0744390488
86 0 7.9027810097 -8.6238965988 -8.4513063431
87 0 -0.5419210792 7.8078694344 -10.0110931396
88 0 7.0754213333 -1.8645597696 3.1754486561
89 0 9.5563850403 -3.7554907799 3.2957561016
90 0 -4.7422995567 -2.8485124111 0.4347472489
91 0 -1.5878578424 -5.1579003334 9.7548303604
92 0 0.3760043979 -8.9178771973 -5.880551815
93 0 10.6249217987 7.7467141151 0.2922407389
94 0 -0.4442586005 -9.8403158188 -13.7392091751
95 0 -6.7174854279 6.704310894 12.6213636398
96 0 2.7447972298 -7.9698834419 9.1710634232
97 0 2.5807538033 1.3486044407 7.8371562958
98 0 4.0463323593 1.7178479433 8.9594163895
99 0 -0.9478837252 -10.5385942459 -7.0470881462
100 0 3.3659861088 -9.9377479553 7.7849063873
101 0 0.9456520677 -10.7965555191 2.0895619392
102 0 -12.1257266998 -11.6619243622 -0.2340070009
103 0 12.9725551605 -2.3737285137 12.6643667221
104 0 -5.963889122 -4.0884861946 -7.5981640816
105 0 -12.5909938812 -7.8404812813 -12.092206955
106 0 -11.7020368576 8.8979825974 -5.3813138008
107 0 -6.9082975388 -3.1643719673 -9.0231485367
108 0 10.0913896561 -6.6703519821 -3.0038604736
109 0 12.0639724731 -5.7665581703 12.9089298248
110 0 6.4673480988 0.7957260609 -2.4675123692
111 0 -1.1079412699 -0.2819531858 12.7691631317
112 0 0.496314913 -5.4847865105 12.1581792831
113 0 -13.6802797318 2.0739245415 7.1621203423
114 0 8.0332756042 5.4066505432 -8.3554353714
115 0 12.0749816895 -2.4358849525 4.3744707108
116 0 -9.8117666245 11.847659111 3.9975652695
117 0 6.9322090149 -13.5343761444 -6.5591926575
118 0 -3.1914145947 4.0824251175 3.7108430862
119 0 -5.8834404945 -2.2529230118 8.2855243683
120 0 -2.5331902504 -6.6337614059 -3.777015686
121 0 -4.3593182564 -6.1959118843 3.1046051979
122 0 -3.9196724892 7.3137946129 9.4170837402
123 0 7.3277359009 0.6816337705 -13.5949707031
124 0 -12.1475715637 10.5311746597 7.696223259
125 0 12.1240196228 8.2751941681 1.6534262896
126 0 8.693353653 12.2111415863 10.5724210739
127 0 -4.7199258804 -5.2379193306 -4.825782299
128 0 9.9090795517 1.9714372158 -7.6659088135
129 0 12.8547830582 -4.1333532333 6.1027679443
130 0 -7.9626088142 12.0155191422 -10.9797668457
131 0 -4.1658439636 0.569416523 -11.3888626099
132 0 -9.0467596054 10.1989498138 7.6457967758
133 0 -3.4144949913 -3.560500145 11.6947841644
134 0 9.4124794006 -13.5408372879 11.5668096542
135 0 -6.3821597099 -8.1440162659 4.5389842987
136 0 -10.6060600281 11.2361745834 2.5673043728
137 0 13.2633771896 -3.17547822 -7.3919744492
138 0 3.8675732613 -2.4826579094 -12.1770896912
139 0 7.611823082 6.8218755722 -1.9045943022
140 0 -10.6787519455 -0.4036633074 -13.6434764862
141 0 -8.9082736969 -1.0030827522 -0.1143455282
142 0 0.5886305571 -0.2635520101 -10.3861970901
143 0 -8.7825880051 -1.1555175781 3.363101244
144 0 11.322259903 12.064002037 -0.9968732595
145 0 -8.173377037 -6.1956596375 9.1085262299
146 0 -0.0950774029 1.3662809134 5.7928175926
147 0 -9.1323871613 -6.757376194 0.1122704297
148 0 -5.4408130646 3.1078233719 2.3707380295
149 0 -7.8596310616 -12.9096441269 10.888007164
150 0 5.8020749092 -12.2238140106 6.577041626
151 0 -4.1005582809 -3.344410181 0.750359714
152 0 12.5678730011 1.6425893307 10.8701715469
153 0 1.0087448359 3.1898500919 -8.7399158478
154 0 -0.8849963546 13.4604063034 -3.2453746796
155 0 12.961180687 4.5329518318 -4.5621848106
156 0 -1.7644532919 0.9446601272 10.1773853302
157 0 3.6533410549 6.0395927429 -4.3503408432
158 0 7.3811483383 2.8121671677 -5.7319936752
159 0 -1.9780877829 -5.015859127 -10.8037605286
160 0 4.373167038 -1.7612887621 9.1617555618
161 0 11.1009969711 5.8897275925 11.7456941605
162 0 -3.2995975018 -2.1235656738 4.2423520088
163 0 6.8771338463 -9.1272516251 3.2250523567
164 0 -3.0204267502 11.3655014038 -7.1906943321
165 0 8.0697994232 1.1606534719 0.1678326428
166 0 -0.720338881 1.7911714315 -11.0071001053
167 0 8.8702793121 1.9397797585 -0.5825734735
168 0 -11.6248092651 -2.36875844 5.2962937355
169 0 -10.8117313385 -9.9170446396 10.4589061737
170 0 4.1627826691 9.9309949875 5.7240028381
171 0 0.0794855058 9.602689743 12.084022522
172 0 -8.662109375 -11.7838582993 -13.4713802338
173 0 -6.3369088173 -3.8894581795 6.8683447838
174 0 5.1881308556 0.0542487912 0.9244360328
175 0 -9.7753572464 -0.6250116229 -9.9433956146
176 0 3.3859753609 -4.0549902916 12.6080465317
177 0 -12.8516569138 5.2510070801 12.5635309219
178 0 -12.1120452881 1.6440420151 1.4525249004
179 0 0.9830930829 -4.3820877075 -10.1117954254
180 0 -6.2802505493 -9.8032484055 -0.7062314153
181 0 3.1570074558 -4.9462108612 -6.0646595955
182 0 -11.3350114822 4.4285879135 -6.7338676453
183 0 -2.7169830799 -3.8920133114 -11.434015274
184 0 0.8330826163 -10.0109491348 -0.3848606348
185 0 12.3594770432 -10.995680809 -5.6790533066
186 0 -7.9342207909 -4.6254239082 9.8217191696
187 0 4.6896595955 -11.4481925964 -5.0096907616
188 0 6.5272068977 0.9649233818 -3.9365246296
189 0 -6.8558859825 -9.0154104233 10.4624052048
190 0 -1.2062237263 -12.1844520569 10.6754131317
191 0 -2.4065434933 -12.7043304443 3.1401643753
192 0 5.5104203224 -9.0726747513 0.679572463
193 0 11.6913948059 0.3011696339 9.3118333817
194 0 -1.5719435215 2.1482133865 2.0504179001
195 0 1.5098134279 7.5118570328 0.1735812426
196 0 13.1468067169 4.5285935402 6.7374482155
197 0 12.284081459 -11.2469377518 6.9848246574
198 0 -10.5566339493 4.1350312233 -6.372235775
199 0 -4.2268366814 -11.4916009903 -4.3691892624
200 0 -9.0113697052 -7.1199293137 1.2211604118
201 0 -4.4144902229 7.3881607056 -7.2652544975
202 0 -9.5202865601 7.4683899879 -5.417722702
203 0 -5.3302989006 11.256893158 -0.1914355159
204 0 2.6978597641 0.5550511479 -3.9858310223
205 0 9.045340538 8.5539121628 11.700091362
206 0 -10.73138237 2.0555067062 13.5318956375
207 0 -10.9565086365 4.2147870064 13.5891046524
208 0 12.4269771576 -12.1017084122 -3.8662564754
209 0 5.9111485481 -0.5685877204 -9.0530891418
210 0 4.1384310722 0.6858828068 5.363134861
211 0 -1.3581204414 3.5266141891 -6.1822834015
212 0 10.5419788361 1.9088864326 4.5165829659
213 0 -11.174779892 -8.8666210175 2.8230104446
214 0 -10.7848091125 -0.0082887728 7.8270206451
215 0 12.4047231674 -5.5326628685 9.3748998642
216 0 -13.6134548187 11.4002761841 12.9058275223
217 0 2.1600673199 1.4811054468 9.537519455
218 0 4.8160467148 6.9439144135 -7.6140584946
219 0 5.6293940544 11.503692627 7.4080457687
220 0 -2.4043767452 -10.9385995865 -0.4871321917
221 0 -3.9432463646 -2.5178985596 10.26603508
222 0 -3.9651229382 -13.5168409348 0.3603541851
223 0 -6.6691384315 -5.6309242249 -11.549325943
224 0 -2.3113393784 -4.600959301 7.6500253677
225 0 -1.2866233587 -0.2694303691 10.5682849884
226 0 9.9001817703 4.4200553894 -7.4814610481
227 0 5.1402626038 -10.3430395126 -8.8348655701
228 0 7.8603854179 -2.1775021553 -7.902431488
229 0 -8.558836937 6.9284000397 7.9660072327
230 0 0.0083258711 -0.4526093006 -3.7421069145
231 0 0.5096026063 -8.1440134048 -3.4421923161
232 0 1.3818048239 10.9283227921 -1.9811645746
233 0 -9.6149806976 -3.1928184032 6.1574707031
234 0 -13.3639631271 11.7351007462 4.1395478249
235 0 -9.6093854904 10.4883079529 13.7292051315
236 0 13.6728830338 -11.492773056 -6.0112957954
237 0 2.3939769268 -7.9941082001 0.3526698053
238 0 -6.317407608 0.075490579 11.5953445435
239 0 -5.7908630371 -12.3674087524 1.91776824
240 0 -2.4850609303 -8.1516828537 -5.2168083191
241 0 -11.7676115036 -7.8604254723 5.2043275833
242 0 -3.589884758 3.3639907837 -6.6791234016
243 0 -0.2323953956 -7.6276283264 -11.2933483124
244 0 7.7034635544 11.7008399963 -5.6662273407
245 0 1.1915249825 1.5508937836 -1.0880129337
246 0 -13.2182912827 -8.2078332901 6.2535076141
247 0 5.5149464607 -12.0980014801 2.4414832592
248 0 -1.8160073757 -12.8707084656 3.943069458
249 0 11.7055988312 13.5587692261 -12.3797769547
250 0 -9.7068309784 -0.0550138094 -8.3076410294
251 0 4.7446203232 0.7392614484 -6.6306819916
252 0 5.8809857368 13.6753644943 12.3076686859
253 0 -0.5907172561 1.2336745262 7.3021302223
254 0 -6.6733779907 -2.0128700733 -11.9956970215
255 0 5.8417687416 0.4745693505 -11.9606380463
256 0 -5.5200176239 13.0324859619 1.8128745556
257 0 0.3342148066 -12.0836782455 -8.5985746384
258 0 -0.9492380023 -7.7088012695 3.1311013699
259 0 -1.5310336351 -13.3628816605 6.8343601227
260 0 5.6195707321 -10.4805231094 10.2805118561
261 0 10.5971183777 -8.5522212982 -11.1580066681
262 0 7.8805122375 6.1447453499 -10.6160850525
263 0 -7.148680687 2.7157258987 1.7081592083
264 0 0.7487560511 -5.385134697 5.7055068016
265 0 -10.6978321075 -6.6948699951 0.9516422749
266 0 12.1161546707 -7.0738897324 1.5125198364
267 0 -11.6002845764 1.9055618048 12.8298397064
268 0 12.0424156189 -12.5801820755 -6.1351723671
269 0 7.2785892487 -10.2229251862 10.7167186737
270 0 -8.8510189056 -4.9900708199 13.0046606064
271 0 12.2084102631 3.7291476727 -3.6741447449
272 0 12.6675739288 2.1644806862 -12.0849494934
273 0 -10.9660739899 5.5624895096 -10.7830543518
274 0 -7.299665451 -2.1356875896 -4.7017374039
275 0 -9.779923439 -12.4948959351 -2.1967315674
276 0 -3.1010596752 6.2942929268 1.711029768
277 0 -7.4319000244 -0.9987047911 -1.2368608713
278 0 -0.655931592 10.9265518188 -0.8868927956
279 0 2.2815659046 -9.738822937 1.2295210361
280 0 1.8499839306 9.6894798279 -12.1552820206
281 0 -5.4363255501 -2.8790895939 13.3999986649
282 0 -12.7983522415 -8.6071977615 -3.5949952602
283 0 -9.53536129 -3.7866437435 4.9801125526
284 0 -9.3428201675 9.4470968246 3.3548529148
285 0 8.879573822 11.0633296967 4.2235717773
286 0 0.4326384068 -13.1343736649 -4.1814699173
287 0 9.7679567337 2.7888548374 -0.0745834187
288 0 -4.4813899994 -7.8946390152 -1.9609872103
289 0 6.6465644836 -4.4484877586 -11.5752000809
290 0 -7.6271867752 -7.6627416611 6.3188390732
291 0 5.2608509064 -10.2866249084 8.8935918808
292 0 12.4363498688 7.5278134346 -3.6316070557
293 0 -3.0964653492 -1.3735901117 6.3632497787
294 0 2.7662630081 -3.070315361 9.5689668655
295 0 -13.6275148392 -4.5102491379 8.5487785339
296 0 7.8270835876 -11.8697052002 13.1645698547
297 0 2.8597352505 4.724603653 -10.0895280838
298 0 -2.049118042 10.3016004562 -4.0122509003
299 0 -10.1705226898 4.0860071182 4.1578512192
300 0 5.9099035263 -0.3005574346 -5.1052598953
301 0 9.664399147 -3.0855584145 7.8255791664
302 0 -1.7377744913 -6.111123085 11.4875688553
303 0 -6.3313703537 4.5924153328 -6.8719887733
304 0 -3.8327429295 8.7541666031 -4.7580733299
305 0 7.6165018082 9.4083518982 -3.7658157349
306 0 -3.4151751995 6.1061973572 -4.4933962822
307 0 0.7831506729 -7.3674020767 -4.6445131302
308 0 -4.9283094406 4.5966243744 -8.8575105667
309 0 6.3346071243 10.7090139389 3.1010007858
310 0 -11.5307435989 -12.2140293121 -11.869509697
311 0 8.0511627197 5.1951284409 -2.7139239311
312 0 -1.2442252636 -10.7224769592 -5.6718816757
313 0 1.7361167669 9.9074478149 -6.86769104
314 0 2.6845397949 7.804058075 12.9274177551
315 0 -12.2353372574 1.8008903265 10.5870256424
316 0 0.1854083687 -6.1788816452 3.4688508511
317 0 -13.4597940445 3.1993439198 -12.389623642
318 0 -7.3878087997 -9.5172357559 4.1270780563
319 0 -6.0646362305 -12.7869920731 -9.2221040726
320 0 13.6304426193 -9.564997673 -7.997171402
321 0 -2.1714773178 12.2590236664 2.703448534
322 0 3.5651295185 3.7506513596 -8.8040390015
323 0 -3.9556903839 7.9025139809 6.7531690598
324 0 -7.6585278511 0.0362006053 -13.4838991165
325 0 1.6180901527 10.8811292648 7.267950058
326 0 -1.282435894 -10.9785747528 7.5925946236
327 0 -6.3612442017 -3.8865704536 -10.0291633606
328 0 4.0424294472 -8.5452423096 -2.4510707855
329 0 12.4901208878 -3.6423647404 -10.4430561066
330 0 3.2544748783 -6.9230461121 6.8831653595
331 0 11.5218067169 -9.7376909256 12.2553844452
332 0 -2.054782629 -9.8176002502 12.6792373657
333 0 -8.3818035126 10.414355278 -11.5512142181
334 0 2.5754365921 12.3436193466 6.8693518639
335 0 1.5428961515 -5.657828331 -9.1534233093
336 0 -4.8336558342 -8.6964378357 7.83857584
337 0 8.5313901901 -3.812864542 -1.4403249025
338 0 -5.9347267151 -7.2003808022 -11.8662824631
339 0 12.7690896988 -1.2298432589 11.9805116653
340 0 -11.5974674225 -8.5018577576 1.9287273884
341 0 -0.7510915399 -12.2343263626 3.0412092209
342 0 -5.0858297348 -0.6509514451 -8.4771432877
343 0 -7.2831983566 -8.2889852524 -11.4076089859
344 0 -7.4943161011 0.7220198512 -7.2929773331
345 0 -5.9618377686 -12.9584178925 -1.2231926918
346 0 -3.5794680119 8.3317747116 7.5295209885
347 0 -7.8054146767 -12.1724872589 3.7940058708
348 0 10.3000822067 -5.1857652664 -10.6208772659
349 0 -9.2012071609 6.1460309029 -12.9315681458
350 0 -5.7766332626 11.9825029373 -3.7161076069
351 0 -0.2322085202 -4.8056302071 -10.5683412552
352 0 1.4867134094 7.2229495049 7.8910131454
353 0 -5.042403698 -2.7343745232 -12.8689241409
354 0 -7.1090941429 -4.8746371269 0.3137957156
355 0 -10.1431427002 -11.3258886337 -4.2958264351
356 0 -5.3773560524 -4.8501672745 -10.5738153458
357 0 0.7709796429 -9.1172895432 13.0981769562
358 0 9.1805000305 -12.1535100937 1.4553186893
359 0 -8.3293924332 9.0603618622 -7.9129571915
360 0 -7.7940058708 1.1753036976 -6.2207026482
361 0 -0.638000071 -13.3428497314 -9.3155288696
362 0 0.6305361986 11.8621339798 10.4394788742
363 0 -5.6264443398 -9.8011636734 12.5917167664
364 0 2.2814817429 -8.5241947174 -9.0224971771
365 0 -8.4952869415 5.7457356453 3.8037292957
366 0 3.5647025108 10.8372564316 12.1692905426
367 0 -9.8970861435 7.9519891739 7.6294021606
368 0 3.1158590317 4.85597229 -6.5884728432
369 0 -12.7782669067 1.2293400764 -11.9959335327
370 0 9.994931221 2.3264639378 -0.7987638116
371 0 5.837334156 7.0873103142 8.3972330093
372 0 1.8879029751 5.4438724518 1.2114065886
373 0 -11.4407577515 1.3854093552 13.4233436584
374 0 4.2841935158 12.9493751526 -8.2571611404
375 0 3.7285106182 -5.177801609 -3.7001879215
376 0 -5.7896647453 4.6642560959 -12.3123989105
377 0 10.5221986771 5.1969447136 5.4321513176
378 0 -3.6023435593 10.6731901169 12.911658287
379 0 10.8986120224 1.9488040209 -12.2999572754
380 0 5.4635763168 11.8403635025 11.2957487106
381 0 -10.807387352 -8.9363040924 7.4973101616
382 0 5.2383394241 5.0467844009 -13.3510866165
383 0 -9.6465082169 5.1007671356 9.7135124207
384 0 -9.6829433441 -6.9091563225 -5.139796257
385 0 9.8036003113 -13.3737154007 10.0163631439
386 0 10.5503091812 -5.6799287796 -8.5700454712
387 0 -12.82330513 4.9951601028 -0.1707806289
388 0 -2.9408903122 5.1540884972 -1.1065422297
389 0 10.8265419006 -11.98188591 1.2960505486
390 0 5.0967226028 5.4273281097 10.1708078384
391 0 -8.3848714828 12.482714653 8.3004741669
392 0 -8.1821393967 8.9287891388 -0.2810209095
393 0 10.3727579117 -7.3411746025 11.1457443237
394 0 -11.1468830109 8.9686260223 12.5476741791
395 0 1.6428755522 6.9720077515 12.7916002274
396 0 6.4124717712 -5.4100084305 8.7804851532
397 0 -10.8129434586 -11.0657634735 -10.2862710953
398 0 -3.1897950172 -10.9614849091 -3.9839704037
399 0 -5.9614715576 -0.1234275773 -11.06894207
400 0 -8.8028364182 11.6334648132 11.9521760941
401 0 -13.2556800842 4.9971227646 -6.1828603745
402 0 -6.165248394 2.8710138798 2.3628056049
403 0 12.9887428284 0.6178202629 2.3137032986
404 0 -11.388625145 2.3387343884 -9.2568893433
405 0 0.2439308167 -0.7608008385 -8.7864694595
406 0 -1.3502613306 -0.1331510842 -13.6738119125
407 0 -7.7800393105 -2.9609830379 1.6441311836
408 0 3.7038404942 -2.3349349499 1.1103379726
409 0 11.0973129272 -10.0216760635 3.7328748703
410 0 -13.5462198257 5.3752841949 -2.9466314316
411 0 2.9027953148 13.0829257965 -6.916033268
412 0 9.5846233368 -8.1479816437 -9.2734794617
413 0 10.0565958023 6.6690320969 6.5160064697
414 0 1.8668460846 0.8720168471 -0.777487576
415 0 -8.793595314 8.3129005432 -7.858730793
416 0 -2.5562987328 3.7291991711 3.1060705185
417 0 0.6509356499 7.4284496307 -3.7440741062
418 0 8.0392446518 13.5391798019 -2.7851176262
419 0 0.6974314451 9.1095561981 3.1078224182
420 0 -8.8956651688 8.9598855972 -10.3923969269
421 0 -10.0795822144 -12.0220966339 8.3557729721
422 0 9.1310129166 11.1918096542 1.5169807673
423 0 1.0824866295 3.3425197601 -12.9490251541
424 0 2.1036427021 0.305082202 2.6042358875
425 0 -1.7228116989 4.620390892 -11.4597969055
426 0 -8.6823825836 10.9913053513 -13.5749769211
427 0 -8.9930124283 -4.7718129158 -9.9872541428
428 0 4.3512210846 7.7880239487 11.9275856018
429 0 5.4589314461 -10.4437360764 7.7010803223
430 0 5.6504364014 4.0545868874 5.4229054451
431 0 -13.0484714508 2.688785553 -3.4629571438
432 0 -9.3637113571 8.9887599945 -7.3980851173
433 0 -2.2068514824 -3.4543905258 -6.1039309502
434 0 12.279882431 6.0208673477 4.4678673744
435 0 4.6985068321 -4.835559845 6.6937732697
436 0 11.5510663986 -11.6094350815 -8.6422567368
437 0 -9.8124036789 -12.4347000122 9.2038221359
438 0 2.4814696312 1.0681751966 -12.8239002228
439 0 -6.6980986595 1.5545450449 8.6291666031
440 0 12.9104795456 -0.7531954646 7.982026577
441 0 -9.3572769165 12.534945488 -5.6756567955
442 0 -8.08801651 -6.1843366623 -0.0186277702
443 0 6.1756772995 -9.1864833832 4.6291241646
444 0 -0.5567560196 3.3933143616 -7.8240599632
445 0 -2.1342499256 -4.6471619606 -11.6783161163
446 0 8.8983325958 -5.6019020081 -12.2229032516
447 0 8.2299995422 -7.4578585625 0.4780094028
448 0 6.9774909019 -11.3491783142 -10.7096738815
449 0 -11.584651947 -12.6363763809 -10.6318302155
450 0 8.0461235046 -2.3169879913 9.2185058594
451 0 0.241020143 -1.0972725153 -6.535358429
452 0 -12.7691307068 -9.2568731308 0.190355137
453 0 -5.7067255974 -13.0747909546 1.3553349972
454 0 12.4432182312 9.772816658 -8.7756280899
455 0 -8.642457962 -11.2326564789 -1.9636340141
456 0 -7.3736104965 -8.3293867111 -12.8414316177
457 0 -3.0297489166 -12.8203306198 8.6223802567
458 0 0.1432629824 8.2079515457 4.4138159752
459 0 3.6733167171 5.0744233131 -5.984418869
460 0 12.9681901932 -9.7405290604 2.4137794971
461 0 12.283952713 9.4890928268 -11.488032341
462 0 6.728931427 5.4608869553 -8.719587326
463 0 7.4327726364 -10.6930904388 9.3575029373
464 0 -11.7981100082 -10.5794210434 -3.7727487087
465 0 -9.9137620926 -12.6967544556 -12.9325475693
466 0 0.33169505 -9.8224601746 4.9958953857
467 0 9.2058868408 11.7766056061 3.9301958084
468 0 -11.8953123093 2.6269593239 9.3540487289
469 0 10.4867401123 -12.8552656174 7.3091688156
470 0 -8.088101387 12.3741607666 -3.4414353371
471 0 4.6700658798 2.2576768398 4.1555838585
472 0 -1.1018356085 -9.505736351 -11.6953477859
473 0 -6.0848035812 -7.0180459023 9.9645986557
474 0 0.8820326924 -7.3123159409 -3.1394672394
475 0 -5.6946592331 12.8161354065 -8.2220468521
476 0 9.3127403259 -1.1057245731 10.9021606445
477 0 4.9671230316 -1.2250648737 13.5312585831
478 0 2.9767045975 8.3173599243 -9.193939209
479 0 -6.959256649 0.0314113088 9.5271844864
480 0 -8.0639410019 7.222009182 -0.3918404877
481 0 13.2033987045 -1.8080272675 -6.5205430984
482 0 1.5794887543 9.9250192642 -1.2895536423
483 0 7.1888074875 10.1545629501 2.357724905
484 0 -4.5259690285 10.5539655685 -12.7403287888
485 0 3.97955513 10.875333786 -3.3461747169
486 0 -5.2617487907 -9.135093689 2.451020956
487 0 -2.4099261761 9.4256801605 -0.8681755066
488 0 8.7705793381 0.6759684682 8.2831163406
489 0 -10.0158138275 -7.750878334 7.8216371536
490 0 6.1300735474 -4.7311525345 9.6276903152
491 0 12.0779237747 7.3495254517 -11.1571111679
492 0 -1.4462857246 13.3369112015 -7.2337818146
493 0 -7.4291944504 10.537812233 11.0162572861
494 0 -11.8193769455 9.4854516983 6.4906926155
495 0 0.3650661707 3.6767113209 8.8651924133
496 0 11.0839414597 -5.9275531769 2.1773862839
497 0 4.2797489166 9.8353681564 6.887532711
498 0 -2.8181061745 -8.1168766022 11.5847587585
499 0 13.0409193039 -4.0644683838 7.8192691803
500 0 12.7031965256 -3.4822289944 -6.7229070663
501 0 -7.3456764221 -2.7442719936 7.9005365372
502 0 9.5629749298 9.6220560074 3.9614024162
503 0 8.8067455292 8.2826452255 -8.5596904755
504 0 5.987557888 9.5961208344 -10.226855278
505 0 4.7279081345 4.0712141991 13.5808877945
506 0 -5.5768284798 4.2461023331 9.8226833344
507 0 10.6374254227 9.7389621735 -2.864928484
508 0 -0.9593547583 1.9562096596 -7.4113912582
509 0 -12.2273683548 3.4517810345 5.1179714203
510 0 -8.7938976288 -3.3489513397 -8.99223423
511 0 -3.4919536114 -9.097363472 2.804094553
512 0 5.4612727165 9.9594926834 9.7290267944
513 0 -4.0511860847 0.6394959688 1.1073510647
514 0 -11.8748693466 -6.4637742043 -0.2573612332
515 0 5.2000470161 -1.7803319693 7.8142242432
516 0 0.4995155036 6.0159506798 -6.9338121414
517 0 -1.3034132719 -6.6436657906 -5.9785556793
518 0 0.0449132994 7.4942045212 5.3663330078
519 0 7.6178565025 2.6042709351 -4.363535881
520 0 8.1672010422 -5.5502724648 -9.4609088898
521 0 -13.7413043976 -4.4776325226 6.4628472328
522 0 9.7136945724 12.203619957 -6.074657917
523 0 1.2621569633 -4.6648154259 -9.2521982193
524 0 11.0132236481 12.3718662262 0.8128876686
525 0 10.2852706909 10.5096635818 -2.9854774475
526 0 13.4634208679 -9.9100122452 4.3743963242
527 0 -13.1618709564 7.1316547394 12.3708591461
528 0 6.342004776 -2.1608607769 9.1223754883
529 0 -11.0354499817 -4.4574894905 2.9003739357
530 0 8.8616914749 4.8521819115 12.3605737686
531 0 9.7602491379 0.7365189791 -6.7710995674
532 0 -0.9429872632 -4.0226111412 -10.6853885651
533 0 -4.6561112404 8.8510637283 5.2427926064
534 0 9.0507364273 -6.3095531464 -7.2762684822
535 0 -7.396282196 -12.1243562698 2.3411171436
536 0 -10.0120258331 -9.2666082382 -7.5979661942
537 0 -11.8623285294 -4.9246306419 -3.5704107285
538 0 -9.6001119614 1.4521220922 4.5477910042
539 0 0.8513846993 11.33040905 -3.1726236343
540 0 9.6954059601 -12.4178905487 0.6457819343
541 0 10.8267345428 -0.1474722177 1.2965507507
542 0 0.5406965613 -0.213615045 -9.4841651917
543 0 9.2315263748 -12.0081787109 -8.5586194992
544 0 3.4812324047 -4.2821688652 11.4655351639
545 0 -11.5608406067 -2.7056334019 -12.7066354752
546 0 9.1444234848 6.7514262199 3.8324165344
547 0 7.2134494781 -3.1667938232 6.2092723846
548 0 8.9797449112 -10.2435560226 -12.392780304
549 0 -4.6350903511 -13.6688098907 3.679425478
550 0 -13.2435760498 -9.4702749252 -12.5373868942
551 0 -6.6607728004 6.9658470154 -2.5956983566
552 0 -12.2223739624 -8.8441019058 -2.6078670025
553 0 -6.1135568619 -6.0276021957 6.0453453064
554 0 4.3763709068 -7.9569573402 -6.2357091904
555 0 6.4869465828 6.7099628448 -3.9570496082
556 0 -13.4596738815 -4.1982059479 -12.6717891693
557 0 0.3984533846 -6.1360831261 11.5354862213
558 0 -3.5538768768 -12.0220546722 -10.6418485641
559 0 6.523235321 11.9705505371 -13.0614519119
560 0 13.6190748215 -8.7075595856 -4.3479738235
561 0 4.5993890762 -9.8507194519 -9.7105436325
562 0 -6.8614215851 -9.9572343826 10.0474643707
563 0 12.8046226501 4.6189641953 -13.2274131775
564 0 -11.5444488525 -7.1502122879 4.8436574936
565 0 8.4164505005 1.3133590221 -1.9088605642
566 0 4.2893919945 -5.7602458 -12.0066661835
567 0 -2.9680571556 2.8305158615 -4.7550201416
568 0 -9.4019021988 0.6995429397 -7.2885346413
569 0 -12.2016782761 -4.8047561646 10.1643276215
570 0 2.5629405975 2.6466760635 10.6916465759
571 0 -11.5738353729 -1.2604415417 -10.3996334076
572 0 13.0205974579 8.5854654312 -6.3704614639
573 0 4.2165994644 -11.7652254105 1.8459661007
574 0 -13.2571382523 -7.8414726257 1.8543753624
575 0 2.9849772453 -11.7974710464 13.4272260666
576 0 0.9189180732 -12.5983734131 8.5328855515
577 0 1.1393797398 11.6129837036 -6.5589766502
578 0 -6.436401844 -5.0172820091 -6.8633551598
579 0 -12.1793813705 11.883936882 -2.2875063419
580 0 2.2786517143 7.5412955284 -1.7565099001
581 0 0.8190969825 -10.4105587006 9.4691801071
582 0 -6.0146121979 -5.7693266869 1.8373568058
583 0 9.7995758057 0.7652046084 -0.3507528603
584 0 -10.3511743546 -6.8220820427 -6.5300836563
585 0 13.6001663208 -9.9869451523 3.02333951
586 0 -0.8404709697 2.0381550789 11.9049415588
587 0 -7.9198064804 -12.7641649246 8.9193429947
588 0 9.645825386 0.6920895576 -3.9033970833
589 0 -10.6729335785 -8.8231954575 0.7549017668
590 0 -5.7137918472 4.6313881874 -13.4204893112
591 0 -6.0544872284 -1.1419680119 -13.5855083466
592 0 -4.9445290565 -13.2789926529 -10.155122757
593 0 7.6607837677 6.3842492104 10.2658090591
594 0 -7.4367280006 10.8648080826 -4.8433847427
595 0 -0.2180126756 -3.6015946865 -10.1151533127
596 0 1.2637023926 0.4558104277 -4.0008606911
597 0 -10.8879966736 0.412402451 6.8436260223
598 0 2.0904476643 -8.4846229553 -2.8561468124
599 0 -10.6157093048 -3.254994154 2.3631014824
600 0 9.0965900421 8.2798585892 8.3514823914
601 0 11.121679306 9.0133676529 -13.6749534607
602 0 1.6500841379 -5.0644040108 -0.3184374571
603 0 -12.474029541 -0.073570922 -10.6586294174
604 0 -6.6358132362 -12.0122375488 11.9707508087
605 0 11.207490921 -9.6579303741 13.6040649414
606 0 -12.921459198 11.4539041519 5.2926230431
607 0 3.3950936794 5.0992689133 2.3212251663
608 0 7.783914566 -5.1746826172 -7.5580749512
609 0 1.3731973171 10.7181148529 6.0557055473
610 0 0.6043538451 -13.1912479401 -4.98523283
611 0 -3.0733027458 -12.3719625473 -11.7918138504
612 0 -0.0367127247 13.6129808426 -1.9594297409
613 0 10.892619133 8.5663843155 4.9817070961
614 0 4.5834255219 8.2639112473 9.1684675217
615 0 2.2072582245 10.1592121124 2.6448276043
616 0 -1.7786570787 -10.2177143097 -6.5654973984
617 0 11.2731933594 10.2548084259 11.052406311
618 0 -13.3260097504 10.5549879074 12.6950445175
619 0 -13.2263650894 -11.1360006332 -5.043800354
620 0 -7.5415935516 -10.2361469269 -4.1326136589
621 0 -10.4979505539 10.181558609 -8.8825340271
622 0 4.1862363815 12.593495369 9.095831871
623 0 -10.1898040771 4.9262294769 11.4954891205
624 0 6.2727985382 -11.9320802689 9.3702716827
625 0 8.5600137711 -7.6327033043 -6.2387442589
626 0 5.70753479 -6.3458814621 -6.9194931984
627 0 1.2994167805 9.7417936325 -10.52257061
628 0 -3.0042216778 13.5911006927 5.4964165688
629 0 -9.570101738 0.3344548941 -9.9304113388
630 0 7.3095288277 -1.5906190872 -5.2448015213
631 0 -9.9320783615 9.8281908035 -12.0237092972
632 0 5.0139451027 -2.3128495216 -9.3489866257
633 0 7.2596058846 2.6298899651 -0.3316380382
634 0 2.8763515949 4.5222229958 -1.9730658531
635 0 -3.8160095215 -3.1808087826 -6.6596007347
636 0 12.3780298233 -4.4912114143 -2.2528886795
637 0 -1.8358001709 10.4815559387 8.4653205872