ITEM: TIMESTEP
0
ITEM: NUMBER OF ATOMS
15625
ITEM: BOX BOUNDS pp pp pp
-13.7473011017 13.7473011017
-13.7473011017 13.7473011017
-13.7473011017 13.7473011017
ITEM: ATOMS id type x y z
1 0 6.0890574455 -6.3204460144 4.1100950241
2 0 10.0902929306 -8.7859573364 3.9358384609
3 0 -13.386092186 -3.1790390015 8.5889482498
4 0 -7.1650867462 -2.4842481613 3.0999696255
5 0 -0.9940997958 1.5439376831 3.7638409138
6 0 -11.1069755554 -5.4569830894 -2.1418199539
7 0 7.8527579308 -3.0207746029 -1.9967238903
8 0 -7.6417078972 0.7832536101 1.31929636
9 0 11.6387081146 5.8108711243 8.2759971619
10 0 1.1676385403 -13.4931335449 -4.2213492393
11 0 -5.7946939468 -6.5683784485 5.745777607
12 0 -11.5604410172 -7.802734375 12.0432281494
13 0 -13.3626184464 0.7528085709 -7.8377070427
14 0 4.2958517075 5.7642865181 7.3584117889
15 0 3.5148103237 2.1284475327 5.5222678185
16 0 10.3366794586 -12.755408287 -7.2064876556
17 0 -6.6830592155 11.7950553894 -10.1269226074
18 0 -2.4359381199 5.6048679352 13.627664566
19 0 2.4009742737 3.1013562679 0.1407141536
20 0 -3.2983150482 10.2069282532 -0.8299733996
21 0 -0.0587883778 -12.0921592712 -11.6468267441
22 0 -3.6952898502 -2.2297792435 1.5855997801
23 0 6.766456604 12.8092699051 -5.1580963135
24 0 7.892124176 3.6370491982 -12.1835927963
25 0 -12.688372612 1.2578468323 10.2506628036
26 0 -5.6083464622 4.9918675423 8.7882585526
27 0 -2.4081759453 5.5640907288 12.6023645401
28 0 12.8849649429 13.6567182541 8.8815422058
29 0 -5.2391562462 9.5317621231 -4.7851676941
30 0 2.9052350521 3.9243988991 -13.313835144
31 0 1.0819464922 0.4392828345 -13.0770645142
32 0 0.3320448995 8.6683330536 0.8324468732
33 0 -12.9322538376 -10.3667497635 -11.7076244354
34 0 -6.5533747673 -1.7242637873 -8.8767614365
35 0 -4.4746465683 -4.5051732063 -7.1911096573
36 0 2.4441521168 -12.0279312134 11.908654213
37 0 12.1805105209 -0.3506451845 -10.511595726
38 0 4.7755022049 7.5088038445 -8.0961046219
39 0 -10.2320556641 10.3133277893 5.7920827866
40 0 1.4066911936 7.2003245354 -1.0528290272
41 0 -6.3246526718 -5.4777784348 -13.5272340775
42 0 -13.6886053085 -7.1260547638 2.528087616
43 0 11.7871723175 -0.1799548715 5.5461411476
44 0 -11.0766134262 -9.215136528 -13.5748233795
45 0 -6.5163254738 -8.3329029083 -5.6501626968
46 0 8.5737581253 -12.1804170609 -5.3943099976
47 0 11.7348957062 5.6784753799 -13.1946029663
48 0 -11.8666620255 -6.6959228516 4.856716156
49 0 9.4102706909 -12.5931844711 -12.6725540161
50 0 12.2388467789 -9.6137151718 11.811750412
51 0 -8.5621604919 13.2514057159 12.265953064
52 0 -1.1574230194 5.6416521072 -2.6568648815
53 0 -11.9915189743 -12.5579853058 7.1202807426
54 0 10.6675434113 -10.5113306046 -1.1636738777
55 0 -10.3890953064 -6.6230573654 -11.7470273972
56 0 -13.5675268173 5.5887312889 11.9593133926
57 0 5.8443965912 8.8952569962 -2.962877512
58 0 9.0743684769 5.7569646835 10.6808271408
59 0 -10.1184988022 9.6260004044 -1.4501476288
60 0 -3.605959177 -11.5638637543 13.5753393173
61 0 10.837228775 2.4517459869 6.8934555054
62 0 -12.8021841049 8.7258176804 -0.0519756675
63 0 7.8224053383 1.9356077909 -11.279589653
64 0 6.4415354729 9.9618215561 -0.4119380713
65 0 -10.9925785065 -5.5675363541 -3.1053440571
66 0 -1.08203125 8.6689805984 -1.1203266382
67 0 5.9816207886 -9.6801137924 2.8700547218
68 0 -5.8275456429 -6.8802237511 0.4508333802
69 0 5.7461080551 -8.1759815216 -4.6464419365
70 0 -9.6584281921 -2.6318175793 4.5471711159
71 0 9.9456272125 -1.976010561 9.8740234375
72 0 -11.5122127533 12.9157686234 0.5544325709
73 0 4.8031363487 -11.390786171 1.4945708513
74 0 -12.8054189682 -3.9171049595 3.0157566071
75 0 -2.0598685741 1.4429479837 11.1602239609
76 0 7.1903152466 2.7934453487 -12.3357458115
77 0 -12.0845956802 -12.8309755325 -9.2701854706
78 0 -10.3149518967 2.0371053219 -7.9013376236
79 0 -10.767950058 -13.216629982 7.6679682732
80 0 10.3616218567 11.8077344894 -11.9108848572
81 0 7.4726228714 -1.1403622627 -2.896982193
82 0 0.8641049266 -12.1152706146 3.4069440365
83 0 -5.8982486725 5.1963610649 -2.9979257584
84 0 -8.5224056244 5.153719902 13.4079284668
85 0 2.8432440758 10.0917787552 -1.8614616394
86 0 -12.3462924957 -12.6824188232 5.7411351204
87 0 13.1606168747 10.1831359863 0.0515931062
88 0 7.381216526 9.6311044693 11.4826316833
89 0 -8.6239614487 -8.6937294006 -4.4462704659
90 0 -7.6827039719 0.395365566 8.0432605743
91 0 9.9912576675 -12.9513082504 2.48726511
92 0 8.4465513229 3.703306675 6.7932252884
93 0 7.8712687492 -0.736800611 -6.1872143745
94 0 -5.5936508179 -7.4621415138 10.3536319733
95 0 7.9443302155 2.3979201317 5.5114455223
96 0 6.8781542778 0.1608326882 -12.1759414673
97 0 -0.2541145086 -12.0657682419 8.2024497986
98 0 -11.3614997864 -12.180896759 -0.8052906394
99 0 9.1744823456 7.4695882797 -6.6789855957
100 0 7.7839369774 12.3838005066 -13.0209245682
101 0 -3.9791321754 -4.9033327103 9.9929256439
102 0 -8.1058101654 7.9570789337 -9.3935976028
103 0 -9.6865406036 12.7546463013 0.3312144578
104 0 -4.4905157089 -11.9747753143 4.3544898033
105 0 13.4085102081 -1.2360988855 -3.1510369778
106 0 -1.0255920887 -10.2118396759 -5.3774490356
107 0 6.3529639244 3.3896234035 5.5705389977
108 0 -2.8067865372 -11.7375087738 -6.2586927414
109 0 13.0393896103 7.9942874908 1.3870409727
110 0 -9.2901802063 -1.5033978224 11.307431221
111 0 -0.2084915638 -9.3836183548 -9.766084671
112 0 -0.2579698563 11.7134571075 2.5118296146
113 0 10.3710136414 6.3438463211 -9.1064195633
114 0 -5.9532980919 -9.8074655533 -3.0411334038
115 0 -11.870136261 -6.1987681389 -2.4042332172
116 0 7.4702539444 10.7649641037 -10.7217712402
117 0 -5.1302652359 12.5487146378 8.1168422699
118 0 11.6260957718 3.1071412563 -1.046828866
119 0 -9.408290863 5.6872606277 -6.4295501709
120 0 1.2029350996 5.9385857582 -7.9891109467
121 0 -9.4361763 5.690864563 11.1392021179
122 0 4.8914966583 -10.238899231 11.7385644913
123 0 -9.0420665741 2.3364746571 -0.6592208743
124 0 -7.7178664207 6.2416510582 -12.4890193939
125 0 -9.9057302475 5.0929074287 5.7033004761
126 0 1.8494141102 -5.0960292816 -8.4636325836
127 0 -10.0510988235 -7.5556411743 -0.4889160395
128 0 -9.1629810333 -4.0940918922 -8.8783864975
129 0 7.4563684464 10.4716529846 0.5860062838
130 0 -0.4257725477 -5.6264896393 -12.2018871307
131 0 11.3971452713 6.8684916496 -3.7597472668
132 0 11.9676818848 1.5211079121 1.689150095
133 0 -7.031642437 7.2511348724 -2.5880548954
134 0 -5.5887098312 -12.6387624741 -8.9872140884
135 0 -6.9009995461 8.1222267151 -12.6154441833
136 0 -11.2712373734 -4.0437445641 8.628988266
137 0 -8.9237861633 -0.5980508327 3.9706463814
138 0 -12.9935417175 -5.976764679 1.441416502
139 0 8.6968431473 -10.3446235657 6.4270968437
140 0 10.7758827209 -3.8419940472 -8.4274072647
141 0 -2.065810442 -4.346394062 -2.6599550247
142 0 -9.8709726334 -9.951965332 -8.379401207
143 0 1.9074494839 6.3132162094 -4.919479847
144 0 13.7304410934 -12.5839958191 7.9678611755
145 0 -3.4916768074 -0.1007629558 -6.9985432625
146 0 -0.3589428365 3.0295960903 -13.5851383209
147 0 -2.376717329 -3.1335346699 5.2413625717
148 0 7.716129303 -5.2537846565 -9.7509860992
149 0 -8.1705684662 -5.4956488609 -3.26795578
150 0 -9.2142381668 7.370247364 -9.9067211151
151 0 6.0556554794 -10.3204431534 -8.8698406219
152 0 12.6473884583 -12.0639772415 -6.3137965202
153 0 3.7607738972 -0.7119780779 -8.9257688522
154 0 11.6770181656 -13.5638742447 -8.4082098007
155 0 2.3949587345 4.093082428 6.5498232841
156 0 11.718296051 4.5997056961 -13.1173286438
157 0 5.9275927544 -6.0106062889 5.137799263
158 0 10.4967489243 1.9615391493 -1.662280798
159 0 1.8702528477 10.0885972977 4.2331476212
160 0 2.8290159702 11.796248436 -8.2437477112
161 0 3.2485699654 -10.8096961975 -12.2713508606
162 0 10.5239706039 -10.8781137466 12.1350946426
163 0 -5.2672157288 1.8296242952 10.6333560944
164 0 11.4063673019 -8.0936498642 2.7056097984
165 0 -13.4931201935 -11.2032136917 1.2730236053
166 0 -5.5469260216 5.4262285233 -11.611697197
167 0 -11.9760341644 -13.714838028 -10.7914419174
168 0 -4.9679994583 -0.0125609105 -8.9595565796
169 0 3.9646267891 7.8713154793 -2.2266619205
170 0 2.0060870647 7.2345266342 9.9028301239
171 0 3.5976958275 -11.4819955826 -5.8931016922
172 0 -4.816696167 3.6306943893 10.6248664856
173 0 -7.5339860916 -7.1085219383 -1.7430042028
174 0 8.2796564102 4.8262934685 -5.7965197563
175 0 8.4061479568 8.7648572922 4.6012973785
176 0 2.9505546093 -3.8428561687 -1.5342741013
177 0 -9.2054367065 5.2892436981 -1.77006495
178 0 0.2675218582 3.1201417446 -6.794860363
179 0 3.016204834 5.4313120842 -3.7697012424
180 0 1.427740097 -5.3617367744 -1.2090269327
181 0 13.1814584732 7.1920866966 3.7386870384
182 0 6.2088432312 3.4699862003 -6.492518425
183 0 -1.4563407898 4.6629700661 9.772069931
184 0 -10.3760347366 -13.741973877 -9.7267913818
185 0 -1.3635542393 -11.4398593903 6.3695693016
186 0 1.6818315983 8.4186601639 3.0590376854
187 0 10.4363193512 4.8807997704 -12.7016382217
188 0 -7.6824936867 -2.467495203 8.6110944748
189 0 -4.8088183403 -13.1982355118 6.6861605644
190 0 8.4062719345 -7.9652576447 9.1851358414
191 0 -3.1834454536 -2.7569534779 7.6705360413
192 0 5.162124157 0.1534916759 11.3451557159
193 0 -6.0333909988 5.330953598 -4.0856580734
194 0 -10.6244621277 -9.2049360275 -11.0267953873
195 0 5.9029979706 -5.9760460854 -12.5653877258
196 0 -3.827147007 6.5833597183 7.9347376823
197 0 2.6628010273 -0.2819315195 -10.8865690231
198 0 3.4088485241 -2.8556404114 -5.3905000687
199 0 -3.7072889805 -12.1122550964 9.5457468033
200 0 -11.849240303 3.6708400249 12.7289648056
201 0 3.9189181328 12.71301651 3.4763228893
202 0 -2.0490496159 13.1988773346 6.276266098
203 0 -4.0719175339 -9.298286438 -4.9622306824
204 0 -8.7750043869 2.5015702248 0.2240980566
205 0 -11.8990106583 11.244181633 -11.6612854004
206 0 7.4921908379 -3.1354842186 -12.5106954575
207 0 8.2781543732 -11.1777248383 9.8354949951
208 0 -12.5208644867 -6.6528587341 9.8113546371
209 0 2.8782367706 -1.9064753056 12.1842660904
210 0 -12.4247426987 0.0960882306 -0.6432954669
211 0 -10.7590847015 9.7440843582 -6.1098694801
212 0 -1.2738227844 -7.9885697365 3.2821793556
213 0 10.1902713776 -6.4982032776 0.1332605779
214 0 1.6826325655 -10.4250736237 0.5026242733
215 0 10.5430660248 -6.6168808937 -11.5227251053
216 0 0.2502709925 13.2915039063 4.332608223
217 0 -6.4635877609 -10.0158777237 13.708978653
218 0 2.0681025982 -9.2281808853 7.779519558
219 0 11.383228302 7.2014298439 -8.7142162323
220 0 -5.6499233246 -2.4650681019 -0.9839646816
221 0 -13.5489025116 -0.9176111221 -6.6830496788
222 0 -5.5498857498 10.5993232727 0.7525431514
223 0 8.7302570343 -2.1815330982 5.7539916039
224 0 11.7331581116 -6.6791062355 -4.7517375946
225 0 1.0238984823 -1.947684288 9.6853656769
226 0 3.3017978668 -2.2472274303 -6.8689947128
227 0 9.1074800491 -7.5140128136 9.5247020721
228 0 -0.867810607 -7.0774688721 10.2688503265
229 0 12.3799514771 -10.5618038177 -8.4091472626
230 0 -3.0560512543 -9.2634925842 1.3375856876
231 0 6.8325128555 -3.5913083553 13.0996789932
232 0 -12.4275512695 -0.7701910138 -1.4334632158
233 0 -12.5534734726 1.4310189486 -7.5026984215
234 0 4.7353458405 11.1746273041 -11.9237680435
235 0 5.6815338135 -6.0998106003 -6.0395321846
236 0 -11.3950958252 -4.8839797974 4.5040650368
237 0 -4.4258451462 5.9753909111 11.0059595108
238 0 8.0370769501 -13.5969228745 9.0433187485
239 0 -2.0273416042 5.7045440674 -3.3665761948
240 0 2.7705068588 1.5853911638 -0.501547575
241 0 -7.4069304466 -3.5263502598 -9.4741239548
242 0 7.2291526794 -5.1009039879 -7.9626684189
243 0 -11.1345596313 -7.797700882 4.4164347649
244 0 -6.4182343483 -5.8884496689 2.8516290188
245 0 -13.6375780106 -3.517056942 4.8076047897
246 0 6.1658778191 1.405952096 -1.1047939062
247 0 -3.6867825985 -5.0870156288 5.48219347
248 0 -9.7736473083 7.9399118423 -8.079539299
249 0 2.3272259235 -6.9594855309 -1.1502491236
250 0 6.896780014 -12.5219297409 -8.9118423462
251 0 -11.7916231155 6.6474294662 6.838572979
252 0 -12.1216316223 -10.2827100754 -9.1609582901
253 0 13.6771869659 -1.252471447 3.4571371078
254 0 -0.3700791299 3.0117154121 4.6152377129
255 0 11.6661262512 13.2573928833 6.0569195747
256 0 7.3215842247 13.1649522781 -3.4132928848
257 0 13.6606397629 6.2373957634 3.096612215
258 0 6.3418297768 0.3239808977 0.2264516205
259 0 -10.0928907394 12.3869695663 12.6463804245
260 0 5.302321434 1.912504077 5.2401843071
261 0 -13.3445291519 6.2590432167 4.682554245
262 0 7.1870622635 9.4306774139 -2.2141435146
263 0 9.6956663132 2.057659626 -9.4717712402
264 0 8.2607822418 11.3042507172 5.5017256737
265 0 9.8474416733 10.7212400436 -0.5091774464
266 0 9.8748912811 -7.819922924 2.2848975658
267 0 4.7251009941 6.251103878 12.4854888916
268 0 6.3499679565 12.1945085526 7.1560983658
269 0 -1.9364011288 10.5084142685 -3.3297977448
270 0 2.8968889713 8.6719417572 -10.4276475906
271 0 -10.9683609009 -6.3706784248 -0.063368924
272 0 11.7321996689 7.5034880638 2.2626357079
273 0 -8.5447969437 6.7630500793 3.598508358
274 0 -11.6438837051 -6.5454583168 12.3376893997
275 0 -6.1081404686 3.1531898975 9.4201784134
276 0 12.9057321548 5.7807044983 0.6829352975
277 0 10.3966760635 -3.8322188854 5.1950244904
278 0 -7.5641012192 -5.7555551529 11.1063613892
279 0 -13.1988182068 -1.78122437 -10.6848068237
280 0 -13.4873380661 -8.5473804474 -7.7310433388
281 0 2.8851094246 -1.516825676 4.3289151192
282 0 11.7950792313 4.6401252747 11.6582603455
283 0 -8.3204689026 -11.7507667542 -6.9691262245
284 0 -12.9168319702 -7.518784523 -7.7301568985
285 0 0.4611518681 -11.3338918686 0.5225819945
286 0 -8.8588657379 7.5623364449 -13.5651855469
287 0 4.0703611374 9.0398616791 -0.704241395
288 0 12.6574811935 -6.5641851425 -4.3776812553
289 0 3.8594887257 12.8184499741 12.8568239212
290 0 -1.4858670235 13.6735744476 4.1125259399
291 0 4.1751379967 1.4291747808 -10.9596204758
292 0 -6.5537686348 -10.5693502426 7.7228951454
293 0 5.3169441223 8.5690288544 -8.0260572433
294 0 -0.4305950999 10.8551712036 -10.7302436829
295 0 4.3366231918 -3.3742513657 -4.5900549889
296 0 0.2764622271 -0.0620580949 -0.5466449261
297 0 6.1549630165 -0.9446062446 10.5689668655
298 0 6.2073779106 -1.9288896322 -12.9607868195
299 0 -7.7548632622 2.4080674648 -2.0295844078
300 0 0.152531594 3.9183018208 -8.3755302429
301 0 -2.1330516338 -13.4543485641 -13.1510009766
302 0 -5.1818914413 -6.7549309731 -8.9190340042
303 0 -3.646078825 8.6662054062 11.658288002
304 0 6.6046462059 8.8925027847 9.6998586655
305 0 12.3747091293 0.4798769355 -5.3287115097
306 0 -4.2277355194 -1.188740015 7.5047941208
307 0 2.2153482437 5.8278269768 -8.2820320129
308 0 -0.6883561611 -6.0117311478 -0.4228906631
309 0 -3.5108458996 8.6880588531 12.6824121475
310 0 1.1954628229 7.8992710114 6.9683537483
311 0 -13.4141893387 11.6404819489 10.6780309677
312 0 -7.5687422752 2.990452528 -13.1248550415
313 0 8.8445529938 -10.3975553513 -13.0907659531
314 0 7.907389164 -11.4685401917 10.6424455643
315 0 0.7289495468 -4.93602705 11.3814258575
316 0 11.1048364639 -12.0594406128 5.3637576103
317 0 -3.0088865757 -6.2634835243 8.9839220047
318 0 -4.81742239 -1.8565616608 -8.1265439987
319 0 -12.6550168991 -5.2061653137 8.99995327
320 0 -12.1361646652 -11.34582901 10.0035400391
321 0 3.2374033928 -1.3450260162 3.6329219341
322 0 -8.7621469498 11.2425546646 -7.336971283
323 0 -1.270927906 0.9939590693 5.0570034981
324 0 -2.3991234303 -12.450961113 3.5836825371
325 0 5.2561826706 -10.6747579575 10.5918321609
326 0 9.4957456589 -7.7399096489 5.8022418022
327 0 11.749420166 4.6079216003 0.8422163129
328 0 -1.7614396811 -8.2710828781 -3.1592886448
329 0 -5.2014455795 -12.7823200226 -3.6358640194
330 0 10.8994941711 -3.3589267731 4.4430403709
331 0 -12.1423788071 -1.6822552681 6.51273489
332 0 -2.558052063 7.5418834686 -5.7237148285
333 0 2.6870594025 7.7849392891 9.7996749878
334 0 7.8544459343 -1.9288263321 1.90305686
335 0 -9.4739665985 -8.7062530518 -0.2030071169
336 0 -12.04292202 -10.0274181366 -3.1393597126
337 0 11.8606977463 8.3750295639 -7.9820203781
338 0 -6.4265813828 7.0874838829 4.5854582787
339 0 -2.8405599594 -7.0922026634 -1.5930821896
340 0 -3.4374988079 -7.4753980637 1.1557966471
341 0 -10.3618040085 9.3365592957 -2.2300038338
342 0 9.7028827667 2.0508379936 -3.1853659153
343 0 -12.0090665817 1.580196619 -10.6123638153
344 0 11.0576162338 -13.6293668747 -9.9475698471
345 0 -5.343606472 0.0111955376 0.0334605612
346 0 -11.347899437 -8.5772323608 -6.1984901428
347 0 13.3617200851 -4.8503894806 -1.4149622917
348 0 5.5960898399 -10.742688179 7.1424155235
349 0 -6.2593631744 13.6580238342 -0.1947090626
350 0 12.5933914185 11.0650911331 8.5244207382
351 0 9.914639473 9.9335336685 4.5890254974
352 0 11.6642360687 12.7796354294 5.0123152733
353 0 -7.8162212372 12.6099338531 12.4656991959
354 0 0.9912451506 -0.9934065938 6.3232827187
355 0 2.0599980354 2.1478302479 -12.3139791489
356 0 4.9698638916 11.4204187393 2.3955373764
357 0 13.2973079681 7.7076435089 7.1285691261
358 0 11.2946996689 -5.4439539909 -4.18486166
359 0 4.1943430901 -2.3653519154 -5.345498085
360 0 8.131401062 -0.334595561 3.2163989544
361 0 -4.0457291603 -0.8935675025 0.3508461416
362 0 -5.3373260498 9.9904623032 -6.2179784775
363 0 -5.8414530754 -4.9150948524 -10.7182092667
364 0 -12.4253435135 9.4331436157 -11.5506353378
365 0 7.0696334839 0.1827912182 -8.4619207382
366 0 9.1268463135 -5.2650699615 -7.3706259727
367 0 12.6526212692 11.2987213135 1.9231277704
368 0 -13.5613222122 -11.1165857315 -5.8916220665
369 0 -6.6517553329 10.3014135361 5.7666888237
370 0 -12.5567998886 13.5214929581 6.5149893761
371 0 12.6819915771 -7.5236186981 1.9405384064
372 0 7.4790658951 12.2740936279 -9.5035219193
373 0 6.168800354 -2.8521323204 3.3206253052
374 0 -13.1282644272 -1.4562575817 -2.4500398636
375 0 10.8721208572 -6.3539743423 12.638967514
376 0 1.8755818605 4.2848892212 13.7328052521
377 0 -3.5783817768 5.3755846024 -8.6007947922
378 0 0.4971185625 0.7837061882 4.3152661324
379 0 -8.6896076202 -7.843187809 -10.2710504532
380 0 2.7834808826 -6.5109367371 12.768242836
381 0 -3.9395315647 -13.3948125839 -5.6503930092
382 0 -7.6288719177 2.0454144478 -5.0341825485
383 0 7.5197787285 -5.3034381866 -2.6802222729
384 0 -7.5733032227 9.8652210236 -10.9684333801
385 0 -6.7330174446 13.2260570526 -2.1676464081
386 0 -4.6037197113 -6.3274359703 -2.0788042545
387 0 5.4022579193 12.711230278 -1.1042841673
388 0 -0.789049089 3.2206437588 2.9265534878
389 0 -8.8791732788 -3.6563212872 3.7385413647
390 0 0.0269718841 10.069940567 -10.7648773193
391 0 -13.5061416626 -2.1403377056 -6.3172159195
392 0 6.2458262444 12.7808656693 -5.9039912224
393 0 3.0263364315 12.4869318008 -4.9762005806
394 0 -0.7606558204 -7.2527594566 -0.7107612491
395 0 -7.8802819252 0.7266794443 -2.990701437
396 0 3.8362863064 -6.9500999451 -10.436747551
397 0 -2.4543926716 4.1555933952 -2.3963963985
398 0 5.2264270782 -12.3489713669 9.2631015778
399 0 -6.955121994 -2.5643835068 -6.3582053185
400 0 7.3806176186 -5.4788188934 11.5909690857
401 0 -9.343875885 0.7729895115 11.811173439
402 0 11.6577243805 12.8817338943 -2.2944555283
403 0 4.0299253464 7.2702121735 13.152384758
404 0 9.2137699127 2.0603806973 4.4006752968
405 0 -8.9135103226 13.7050523758 -12.5409479141
406 0 0.1972694099 -12.9453849792 1.6963692904
407 0 3.8727266788 -10.2281084061 13.1073579788
408 0 -12.0466718674 11.9124422073 -8.404794693
409 0 -4.1309437752 3.2622134686 11.3951511383
410 0 -7.4330534935 -8.2852993011 11.5967416763
411 0 -5.6075258255 10.703587532 -2.3679785728
412 0 6.6455335617 -8.5138483047 12.2201738358
413 0 6.7954306602 9.1953754425 0.0950478762
414 0 9.8458995819 -7.9179353714 12.0552949905
415 0 12.0664625168 13.3620872498 -10.6238584518
416 0 -9.2470235825 7.1227092743 -2.3233823776
417 0 -0.4118247628 -12.1640510559 -1.384586215
418 0 13.632270813 -3.2452647686 -11.0818767548
419 0 8.6023702621 5.6554479599 3.4265906811
420 0 -6.8088817596 5.0221166611 13.6851348877
421 0 -10.0740156174 -13.2402677536 8.3195829391
422 0 -7.1807780266 6.8821544647 0.3365338445
423 0 -12.3398838043 -6.7866301537 -4.2041144371
424 0 -10.0061407089 2.7084448338 5.9583091736
425 0 0.649521172 -8.9366197586 -7.3690013885
426 0 4.0139975548 -10.710565567 -6.6561360359
427 0 12.9996051788 -1.5441714525 -4.8052453995
428 0 -2.1539409161 12.6012887955 3.1464314461
429 0 -11.277589798 -4.1750221252 -4.2225794792
430 0 -4.1335897446 -6.6603341103 1.6742404699
431 0 -11.1574697495 12.4555845261 12.6055870056
432 0 -0.0289995428 5.8605656624 -11.7281599045
433 0 -5.2311964035 11.369925499 0.103909798
434 0 -1.9950851202 4.1220693588 -13.1801939011
435 0 6.9898719788 -10.9577856064 13.0783004761
436 0 12.5998344421 -2.9596741199 8.032207489
437 0 -1.8456667662 1.7783646584 9.9557495117
438 0 -2.7346508503 -11.3840894699 -3.6288068295
439 0 3.8025867939 12.8935365677 2.2678873539
440 0 -1.2564783096 3.2860679626 4.5748114586
441 0 9.9827623367 -2.0763311386 11.5286397934
442 0 -8.9773292542 -12.1542081833 -9.1486234665
443 0 10.0502548218 -1.0563393831 6.6402497292
444 0 11.3497982025 -9.8335237503 -13.076084137
445 0 0.537176013 -12.1956596375 -13.4788331985
446 0 -12.2833948135 4.2030515671 1.6015498638
447 0 12.6407842636 5.2687449455 13.6228656769
448 0 5.5171065331 -4.0753026009 2.5244984627
449 0 4.8115930557 11.9067640305 7.5845279694
450 0 12.542347908 3.5524897575 4.3901028633
451 0 1.1655983925 2.2722022533 4.3881320953
452 0 10.1825857162 -11.4932441711 -10.2739419937
453 0 -0.3770451844 11.6041622162 -2.6046226025
454 0 11.8874673843 11.9385871887 -5.9080328941
455 0 -9.298915863 -4.4905700684 8.1661300659
456 0 0.317523092 10.7871522903 -11.4803581238
457 0 -9.9991970062 12.199962616 3.9552817345
458 0 10.6607513428 8.116361618 -7.6971707344
459 0 11.1260070801 -11.9397649765 -6.0384640694
460 0 11.5291461945 4.8272733688 -7.3157763481
461 0 4.7902326584 -5.7801036835 -6.4218616486
462 0 -9.1292514801 5.7258992195 1.9423935413
463 0 -3.1999351978 -11.7595052719 -0.7523103356
464 0 -4.8903107643 2.4644594193 -11.1498403549
465 0 7.9893498421 10.0592565536 6.2408037186
466 0 7.4224014282 -10.8656053543 -0.6848450899
467 0 5.9432444572 5.7103853226 8.3903455734
468 0 -8.4143667221 -12.1550254822 -2.381809473
469 0 7.3071374893 -2.686476469 0.0691781715
470 0 11.493437767 9.282951355 1.4083511829
471 0 7.0120415688 -1.9985389709 7.209215641
472 0 10.1358966827 -2.5955305099 5.6777358055
473 0 -3.9137871265 9.9351930618 0.9019653201
474 0 -12.6498508453 10.6451816559 1.7786679268
475 0 2.4882380962 -10.6700172424 6.7652902603
476 0 3.2661521435 9.5354652405 -7.5941243172
477 0 9.9925270081 -4.2955956459 -12.5249729156
478 0 11.8742294312 -2.2066152096 -10.6591939926
479 0 -5.781373024 9.8154973984 2.5825533867
480 0 -4.1385126114 11.4040546417 -6.7511153221
481 0 1.559292078 6.0650553703 -13.575961113
482 0 -4.3227887154 1.4573484659 -3.2024590969
483 0 4.0456457138 -11.9933786392 -2.9846768379
484 0 1.4279994965 -10.4975681305 1.5800623894
485 0 -8.1864356995 -5.4373135567 -5.0362839699
486 0 -11.5205068588 8.6050443649 -4.7995853424
487 0 -9.027759552 8.0209207535 2.1351025105
488 0 13.6156311035 -12.674697876 9.9999170303
489 0 -2.2579562664 -1.3894996643 11.8086109161
490 0 -8.3132743835 2.9646990299 1.9244395494
491 0 -8.862818718 -3.2060003281 7.8138394356
492 0 10.938369751 10.9418058395 13.5480632782
493 0 -1.9590543509 12.8407812119 13.3947610855
494 0 12.8189735413 -11.2412757874 -6.6644444466
495 0 0.481638968 -2.2892742157 7.4014129639
496 0 1.9687564373 -1.1313878298 -6.2215466499
497 0 -7.5978717804 8.960691452 -3.4513707161
498 0 3.2930538654 -1.5431779623 -5.1287899017
499 0 12.7268781662 0.4754464328 3.2563924789
500 0 4.8460850716 -8.5540628433 -3.2970840931
501 0 -13.3348093033 8.8872127533 8.956735611
502 0 -13.0141496658 -8.4099407196 6.9987859726
503 0 -0.8665876389 5.8851904869 0.8830913901
504 0 -3.579107523 -0.5149802566 5.6996655464
505 0 0.0042842813 0.2668128312 -13.2946538925
506 0 -6.3657302856 -11.3740119934 11.0053911209
507 0 1.6535841227 1.0709867477 -3.9457747936
508 0 9.3774757385 -9.9496135712 12.2139205933
509 0 10.9556684494 -9.9762840271 -10.6175441742
510 0 -2.9814984798 8.5088243484 -11.4372282028
511 0 4.6409564018 7.0511674881 3.6440372467
512 0 4.152671814 7.6141023636 -6.4015855789
513 0 7.2055597305 0.0588821135 0.1545437276
514 0 2.898848772 -4.1691865921 11.4544181824
515 0 -4.9798159599 -7.7632703781 6.0170817375
516 0 -0.1291095018 -1.5980857611 7.5555067062
517 0 -2.6720421314 8.3873414993 -8.1376600266
518 0 -11.9965105057 11.3105249405 1.2365574837
519 0 -11.4423656464 -11.4383487701 -0.0996362343
520 0 -9.2850437164 7.4426283836 3.6889865398
521 0 1.9015549421 11.6875772476 -13.0570840836
522 0 -4.1529817581 6.278242588 4.1608457565
523 0 -0.9105517864 -4.8986692429 -10.7106580734
524 0 6.9931612015 -4.2751483917 -12.9331130981
525 0 -0.8132250309 7.754322052 11.1841344833
526 0 8.4765586853 -12.3688211441 2.8966569901
527 0 -4.4452362061 -3.1313195229 7.1451668739
528 0 -6.110640049 9.9369134903 -1.3133610487
529 0 8.2737998962 3.1099226475 12.5256690979
530 0 4.9548110962 6.6017560959 5.520131588
531 0 12.1363754272 1.0378675461 0.9483202696
532 0 -5.2315654755 12.0991926193 -10.7892465591
533 0 -6.987678051 4.3635883331 8.9576368332
534 0 -3.8420937061 11.736790657 -8.5147647858
535 0 -11.9889240265 -10.5416088104 10.7192392349
536 0 -8.8340177536 -12.9104280472 7.6634507179
537 0 5.5826940536 -11.434305191 8.764093399
538 0 0.4532830715 -7.1556663513 -4.9940629005
539 0 -4.3861980438 2.3649628162 -10.163561821
540 0 -9.5483970642 -6.9995689392 3.4484238625
541 0 8.4524059296 -1.3788676262 11.397974968
542 0 3.5097665787 6.6421737671 2.634802103
543 0 4.6969637871 12.8698482513 -12.5886907578
544 0 8.0990247726 1.0879058838 -7.6394348145
545 0 9.123591423 1.1933586597 -1.6268852949
546 0 -9.7831754684 7.1394910812 8.6071109772
547 0 13.2229528427 -4.7338199615 8.7885732651
548 0 -2.7649903297 0.2907764316 -6.0264778137
549 0 -10.1563606262 3.1163334846 1.2926980257
550 0 -1.9494144917 2.1213653088 12.526304245
551 0 4.0326519012 5.084151268 6.5984630585
552 0 -13.0096254349 4.1940379143 6.4613537788
553 0 1.2906156778 -11.5049591064 -10.6544847488
554 0 -12.1480436325 -0.8419179916 7.3536844254
555 0 -12.7814073563 2.279967308 -1.7778458595
556 0 -7.6412911415 2.8740754128 -1.1741713285
557 0 10.6817150116 -3.3932695389 9.2369174957
558 0 -12.0220527649 -7.1537957191 3.0353002548
559 0 6.4946269989 10.9242191315 10.9132566452
560 0 -13.4453458786 7.0917954445 -12.2818164825
561 0 13.2875499725 4.3053617477 -0.5516256094
562 0 13.525841713 9.0760908127 -2.9881231785
563 0 6.8404541016 -3.2364702225 3.5690653324
564 0 0.0739077777 -12.5129432678 3.7467825413
565 0 -5.8463397026 13.6156101227 7.4721589088
566 0 -0.6679955125 6.398566246 -4.1236248016
567 0 -4.5973463058 0.0388898998 2.6506547928
568 0 -1.6600809097 6.6100010872 13.3390884399
569 0 7.209540844 13.1706562042 -10.2951316833
570 0 -6.8782653809 9.1191663742 -9.6336116791
571 0 7.8106861115 -9.4220647812 -10.9858293533
572 0 1.6159521341 13.5535745621 -12.5467710495
573 0 5.5765242577 -5.7964105606 -7.0095872879
574 0 1.2208184004 -7.2605290413 -9.8795938492
575 0 4.2003998756 7.3485360146 6.9804091454
576 0 5.5583844185 -12.4024496078 12.460146904
577 0 6.142305851 8.3878679276 10.1341114044
578 0 8.6410427094 2.5030519962 -1.2539657354
579 0 6.2368116379 -3.2679703236 -12.0591144562
580 0 -13.0112495422 3.5896003246 10.3225679398
581 0 10.2974033356 -12.2227649689 11.8793716431
582 0 8.6922988892 -2.6180589199 0.3722588718
583 0 7.6733956337 4.8234229088 12.5065870285
584 0 -4.6925673485 4.9354610443 8.2066507339
585 0 12.5231513977 12.5246639252 -8.7499551773
586 0 -11.5672121048 -6.0685591698 6.2993264198
587 0 6.1024827957 11.8101863861 -5.4195466042
588 0 9.6421318054 -5.6238036156 -1.5976324081
589 0 6.048391819 11.139752388 -2.6011507511
590 0 2.1487390995 -12.1086072922 5.9646573067
591 0 8.139547348 1.8790792227 -1.6175777912
592 0 -12.8371334076 -10.7956132889 -4.7763195038
593 0 12.1742143631 10.0770978928 -12.8821439743
594 0 -13.1623106003 -2.4588000774 3.9982769489
595 0 -4.4279518127 10.7148485184 2.4404895306
596 0 -4.0703248978 10.0752468109 -3.3245182037
597 0 13.3052883148 2.7434511185 9.2284975052
598 0 -4.241528511 -3.2659091949 -5.9117717743
599 0 3.6486055851 2.1469516754 7.320057869
600 0 -5.3497238159 -13.4332008362 2.4630031586
601 0 -11.9770431519 -11.7057762146 -10.500336647
602 0 -5.8578715324 -1.092020154 -10.8766727448
603 0 -7.0442967415 -8.7259225845 -3.6528940201
604 0 1.9115002155 1.8447012901 -7.9339346886
605 0 12.507194519 6.0315089226 -2.7422103882
606 0 13.7179841995 9.606678009 -13.06437397
607 0 7.1149568558 7.4864850044 4.008067131
608 0 2.4468250275 -7.0573430061 9.926782608
609 0 8.9010658264 -11.5254669189 -13.4342336655
610 0 4.3086338043 -8.2885913849 -12.7559223175
611 0 -3.3973379135 -0.7089268565 -11.0716152191
612 0 -10.8554077148 -10.7066087723 -8.5214042664
613 0 3.0742044449 8.7495794296 8.0517578125
614 0 10.9298839569 12.8556146622 4.3874921799
615 0 -9.3370447159 2.119333744 -5.0106668472
616 0 -6.3735074997 4.9935474396 -12.3679037094
617 0 1.0584471226 1.7451930046 -1.1175020933
618 0 7.6219863892 -13.0647277832 4.6182794571
619 0 4.471552372 12.9878969193 0.0922604725
620 0 5.7346310616 -0.7221199274 0.1486631632
621 0 6.941131115 -10.8828315735 -1.9375076294
622 0 -1.2692859173 -9.2262706757 -10.7259635925
623 0 5.3658676147 12.016579628 5.8432798386
624 0 -8.6059322357 -5.0051031113 -1.5881227255
625 0 -7.7845034599 4.7355451584 -7.9890117645
626 0 -7.5827040672 -6.7490811348 2.1850538254
627 0 8.3514089584 11.0841341019 -5.1916155815
628 0 12.4062595367 11.1160039902 -11.5277004242
629 0 5.670940876 10.932756424 -12.7813148499
630 0 0.6314824224 -13.5010938644 -10.2882738113
631 0 9.5972251892 10.0938405991 -13.3635587692
632 0 -13.0280570984 11.5295438766 -4.9397220612
633 0 4.356739521 -5.8912220001 2.5189990997
634 0 -10.3661518097 -4.6019611359 2.4734239578
635 0 -1.8148771524 -10.4140281677 -6.4744830132
636 0 -0.1553991586 8.5164661407 10.6273994446
637 0 -0.3071812689 7.4937767982 -2.9053313732