ITEM: TIMESTEP
0
ITEM: NUMBER OF ATOMS
15625
ITEM: BOX BOUNDS pp pp pp
-13.7473011017 13.7473011017
-13.7473011017 13.7473011017
-13.7473011017 13.7473011017
ITEM: ATOMS id type x y z
1 0 11.7318611145 11.2601213455 13.5706453323
2 0 -10.1822881699 6.3268399239 -8.5356769562
3 0 -2.8798642159 12.0004053116 -2.9230108261
4 0 -12.5443658829 2.500089407 3.7750947475
5 0 -4.5566167831 -11.5877876282 -3.6489579678
6 0 13.1928005219 -4.5400409698 -0.4701779187
7 0 10.6218519211 -8.8002099991 10.7273483276
8 0 -4.9909968376 -5.6132187843 -10.2435045242
9 0 -7.0875768661 -10.6948280334 -0.4428068101
10 0 -0.684733808 1.8850769997 -5.5696673393
11 0 -9.8531141281 -1.7861424685 -1.6229076385
12 0 11.2327919006 -8.0587768555 -11.3705539703
13 0 11.1869840622 7.0206384659 -3.0528483391
14 0 -10.5893783569 -4.4217643738 1.0933078527
15 0 3.8180923462 8.1492891312 -4.7436642647
16 0 -5.529317379 2.3562552929 -11.3616361618
17 0 -10.8347091675 -9.8038234711 -5.8872976303
18 0 -2.0772254467 -6.452214241 5.8234362602
19 0 5.1573185921 2.255853653 11.1116676331
20 0 -11.3868904114 -1.9861135483 -6.353456974
21 0 -10.1087875366 -13.4340543747 -6.4314565659
22 0 -3.9064869881 6.6145429611 -7.5541377068
23 0 0.2842012644 -7.4851908684 -5.2199521065
24 0 -3.6690084934 4.1140041351 -13.5009059906
25 0 1.5466003418 4.5525479317 6.1849732399
26 0 1.0357246399 -8.576543808 -11.2884864807
27 0 -13.5779867172 -1.5520486832 1.5442060232
28 0 6.9806303978 -0.1638455093 -13.274181366
29 0 11.6563749313 -10.6633243561 8.0351362228
30 0 -4.2190408707 10.7207355499 -6.4297604561
31 0 -6.367972374 -7.8968839645 11.0791921616
32 0 0.199023068 -9.7501983643 -0.006921038
33 0 10.8100414276 -4.3902683258 0.204003498
34 0 -5.6619377136 -12.114566803 9.8583593369
35 0 5.267159462 9.3887424469 8.2509727478
36 0 -11.0316505432 2.3083701134 13.4985198975
37 0 -6.0603365898 -5.0387158394 -2.3886432648
38 0 -12.5969800949 12.2590618134 -12.5848722458
39 0 -1.3397403955 7.5638313293 8.3522644043
40 0 -4.6760196686 7.356238842 4.5618643761
41 0 13.1203317642 8.6141653061 -10.1930589676
42 0 -2.4494826794 9.9949903488 8.4781780243
43 0 13.6350812912 11.5942134857 -13.7095317841
44 0 -0.606746316 -0.6074953675 7.3923301697
45 0 12.0001840591 3.2629005909 -12.8892364502
46 0 6.4342184067 -7.6322822571 -3.9209587574
47 0 5.5517649651 -4.0848112106 -10.5567312241
48 0 7.9019298553 4.537378788 6.0404047966
49 0 7.8667860031 4.0442495346 -8.1578512192
50 0 -13.6488046646 0.4501946568 0.6571857929
51 0 -6.1026730537 -0.6659417748 -0.1603168398
52 0 1.9879097939 5.6269893646 -13.0487327576
53 0 6.4426994324 9.1193847656 8.2274742126
54 0 -7.0201787949 -10.7088451385 12.0594730377
55 0 -1.7032334805 -3.0468389988 7.1306023598
56 0 -12.8751115799 1.5374366045 -5.2144126892
57 0 0.1096551642 -13.4833679199 -11.2556200027
58 0 -5.7280421257 -6.5838346481 3.0225987434
59 0 -6.4010705948 0.2145707905 -1.848742485
60 0 -5.3463759422 12.4021930695 -1.3635194302
61 0 -4.5796232224 3.119484663 -1.7184746265
62 0 -10.9351644516 8.7829723358 11.4765491486
63 0 -11.2083396912 -6.9487471581 2.0512638092
64 0 -6.1907806396 8.2084741592 11.9527997971
65 0 11.7146205902 -2.6304631233 2.6747484207
66 0 8.3864879608 0.8947826624 10.5685482025
67 0 7.5064549446 -5.8160357475 13.4287939072
68 0 2.9088749886 -10.6844091415 -1.088000536
69 0 -0.18517223 3.7950720787 -6.4660520554
70 0 -7.4272241592 -9.8708562851 7.0385985374
71 0 11.2383670807 1.7003079653 12.5195379257
72 0 -0.4888755381 7.0036644936 -3.4949934483
73 0 2.5589804649 12.6393089294 -13.5583496094
74 0 -10.9248580933 -13.7313861847 9.6003742218
75 0 -2.0494229794 13.3664722443 -10.1948518753
76 0 9.8373365402 0.0920462385 4.4164614677
77 0 -7.8050465584 12.9477348328 9.1566267014
78 0 11.8830823898 -2.1938683987 -8.9813222885
79 0 1.2267841101 -5.3692436218 13.5125331879
80 0 -3.9546720982 -12.5678434372 2.2356805801
81 0 -10.4315443039 10.1373958588 -5.0651397705
82 0 -12.0329418182 -12.8221721649 -0.533136487
83 0 -3.2839243412 -7.5940556526 -13.0183334351
84 0 13.0767564774 13.3082923889 13.0126590729
85 0 6.851667881 2.749876976 12.0111598969
86 0 -3.163793087 -6.2308549881 -2.8897042274
87 0 6.9415941238 -10.6151065826 -2.0566179752
88 0 -6.3045406342 -13.2210216522 -12.2708425522
89 0 11.8611040115 0.1570326388 6.708234787
90 0 6.0508961678 5.5695486069 -10.7918996811
91 0 2.8334915638 -10.6661596298 6.6189188957
92 0 13.359834671 0.2101182938 1.610827446
93 0 -11.8021411896 6.9400839806 -1.5332409143
94 0 -1.5114427805 -4.0589261055 -8.8924865723
95 0 -1.5384795666 4.8203258514 8.0304422379
96 0 -9.6828756332 -8.8990631104 -13.4848432541
97 0 -2.9251949787 -12.92420578 7.2953295708
98 0 3.7909014225 -3.9675149918 11.1101179123
99 0 2.8624253273 -7.8841853142 11.324798584
100 0 10.045425415 0.4063032269 -8.5173168182
101 0 4.8164176941 0.9518355131 10.3453626633
102 0 -2.9619710445 0.7916357517 3.2054429054
103 0 -13.3450527191 2.0911843777 -1.2243945599
104 0 9.671833992 7.7107300758 -5.1320605278
105 0 -3.2583398819 -10.4236631393 -12.9937324524
106 0 -12.478055954 0.8914433718 10.5548152924
107 0 4.1159219742 10.8983097076 -3.750582695
108 0 -1.8900185823 11.4826717377 -7.8870897293
109 0 1.8311059475 -3.5427372456 1.3650375605
110 0 -12.4903287888 9.28241539 -10.3385467529
111 0 -6.2261919975 3.9854354858 -9.4671182632
112 0 -11.1057043076 5.5866594315 -13.1358671188
113 0 9.2899503708 8.8251647949 1.3211188316
114 0 6.2560362816 8.0568933487 -10.553103447
115 0 9.5470085144 -13.5489683151 -13.0128583908
116 0 -2.9269447327 4.0063052177 6.0380516052
117 0 5.1006917953 1.7679601908 -8.2056789398
118 0 -6.0106825829 4.0449051857 -5.9284977913
119 0 -6.0495743752 4.1804566383 9.9058141708
120 0 -8.0448198318 4.0918531418 -0.6451859474
121 0 13.023188591 -10.8717632294 3.0214545727
122 0 -8.5705623627 11.4885644913 0.9096087217
123 0 -11.5687980652 -7.2252492905 -1.9823755026
124 0 6.6990046501 7.5920243263 -2.700095892
125 0 -4.6683168411 11.4271240234 -6.0594954491
126 0 10.0932235718 -12.9517869949 12.2373304367
127 0 -11.7851018906 -0.8698139191 -3.7757298946
128 0 1.1595560312 -6.3534646034 2.3069491386
129 0 -7.2367348671 -2.7146558762 -7.9428458214
130 0 -6.5438375473 11.6560440063 1.1897728443
131 0 11.7697954178 9.8407754898 -2.6545331478
132 0 12.4970693588 -4.1278605461 -13.4246311188
133 0 -12.2604608536 7.6019115448 5.9708204269
134 0 8.8389930725 10.7876310349 11.8980865479
135 0 -9.1510772705 11.9765691757 3.7679510117
136 0 -2.4257566929 -11.1662492752 8.9377269745
137 0 6.6324191093 -10.0098705292 11.9578418732
138 0 5.7459449768 7.3331913948 2.7624127865
139 0 -13.3682804108 5.0699877739 -3.0055406094
140 0 -2.0551688671 -6.4745230675 -12.5209779739
141 0 -11.8679628372 2.1909980774 -9.5724134445
142 0 -0.1557480544 -1.046612978 -11.6111288071
143 0 -11.4316139221 4.7739858627 2.5866413116
144 0 8.2388629913 -1.1949597597 -10.9386959076
145 0 -3.5479724407 0.9916654825 -12.502453804
146 0 3.3803870678 1.2174924612 1.3106031418
147 0 11.569937706 -13.519493103 2.7762482166
148 0 11.535279274 -2.7594013214 -0.6022063494
149 0 -2.1547372341 -10.4173774719 -13.3112697601
150 0 -10.8583898544 0.141425848 -12.8650112152
151 0 -1.8803623915 -1.7992554903 3.9759242535
152 0 -6.9907207489 -4.1833267212 0.279841423
153 0 6.1301584244 -8.5940408707 4.0910005569
154 0 8.9332771301 5.879199028 2.4520170689
155 0 -0.7516652942 10.2453222275 3.2001497746
156 0 -0.4426181018 9.8170003891 7.2944154739
157 0 3.9568884373 12.2373571396 9.374502182
158 0 -10.751958847 -11.9427289963 -8.2288427353
159 0 6.1904158592 -12.2606401443 -9.5845422745
160 0 -5.2553839684 -1.8482898474 -9.3134059906
161 0 -1.463742137 -11.6340866089 5.422270298
162 0 2.0226774216 13.6185588837 -9.3232049942
163 0 -7.878153801 5.4061999321 1.5646400452
164 0 -3.9593133926 -1.5746315718 -13.4331254959
165 0 -11.6929683685 -4.1884698868 4.1378331184
166 0 0.2806442976 -12.6366529465 -0.949113667
167 0 -3.2139110565 -12.4194030762 11.2750835419
168 0 -13.0504045486 -8.626996994 3.1713018417
169 0 -4.5002260208 9.5551548004 -10.0079050064
170 0 -0.3187477887 7.7447295189 -1.2035855055
171 0 9.3057050705 -8.2330532074 5.6650295258
172 0 -8.5021514893 -0.1345454305 11.3447551727
173 0 -11.0841445923 0.2716700137 7.7511506081
174 0 -2.6083140373 -7.5938067436 7.7124943733
175 0 6.7621192932 3.6565024853 -0.5039587617
176 0 -2.3907060623 3.1220686436 11.6017112732
177 0 -0.6341699958 -5.9191689491 8.4197483063
178 0 -4.4997925758 6.6940941811 -1.6828688383
179 0 10.099770546 11.8525533676 -8.7327432632
180 0 -1.5389021635 -2.5348153114 7.9484481812
181 0 11.1048049927 -8.5656938553 6.1586828232
182 0 -10.7913446426 11.290848732 -0.4120940864
183 0 -10.2492008209 9.9707098007 6.6190390587
184 0 7.0300159454 2.5648264885 12.8922986984
185 0 7.6061887741 -6.0946769714 -1.4549527168
186 0 8.1330394745 1.2861742973 -1.7063353062
187 0 6.3107366562 11.5467748642 -8.0755290985
188 0 3.5541675091 8.8833684921 -8.1910552979
189 0 -0.1856506616 0.217098698 -6.4377851486
190 0 6.7760357857 -3.5866580009 -1.2225937843
191 0 -1.8317543268 -13.5926370621 -13.3311719894
192 0 -3.8027915955 12.0305404663 0.6407065392
193 0 10.1401138306 -2.1972761154 -1.4959162474
194 0 11.6573581696 -8.4962072372 2.5266127586
195 0 5.0104789734 13.0821332932 11.8861970901
196 0 2.590606451 9.5344390869 -1.3674948215
197 0 -7.5545883179 -3.6376292706 -11.8273181915
198 0 -11.5756254196 9.5026712418 -5.5170645714
199 0 1.7232701778 9.5981731415 -0.8170985579
200 0 4.971616745 7.5816807747 -12.0177240372
201 0 5.7837381363 -7.8028669357 7.0293450356
202 0 7.9491562843 1.5499205589 -9.739107132
203 0 12.5493297577 -9.4871377945 -8.7884559631
204 0 -12.297826767 -9.5171079636 -9.9881296158
205 0 -10.6986303329 10.2445869446 -12.5300226212
206 0 9.3998422623 10.9853496552 -9.2059898376
207 0 -5.8525948524 -7.0721578598 -2.4665875435
208 0 -2.9121031761 8.9346399307 -7.5320663452
209 0 -7.0921926498 -12.5959072113 4.4382667542
210 0 -7.4105944633 12.4872894287 5.734975338
211 0 0.6386111379 -4.0436520576 10.0226268768
212 0 8.7895107269 -11.1338586807 12.6812467575
213 0 11.8778839111 -4.9480009079 -1.9746584892
214 0 3.9663722515 6.8268790245 -3.9147584438
215 0 -4.9451050758 -5.2768788338 11.1482057571
216 0 12.2357559204 -11.4655103683 -5.3047361374
217 0 4.2930650711 -0.5927326679 -12.7569980621
218 0 2.522493124 4.8069777489 -8.1122398376
219 0 -5.3157644272 -13.0619277954 10.8003358841
220 0 4.6755399704 -2.7412672043 7.6465764046
221 0 12.3428564072 7.4317708015 -7.7031984329
222 0 -8.5839414597 -10.1114053726 -13.3966598511
223 0 -5.1738548279 -13.5932970047 -11.60978508
224 0 -10.193903923 3.9532518387 13.7459897995
225 0 2.2948303223 13.1934690475 2.1592168808
226 0 5.0919094086 -9.2185707092 10.004278183
227 0 -1.2541003227 -10.9412078857 8.7393493652
228 0 -10.9600296021 9.2056932449 -2.6696875095
229 0 -3.4865841866 -12.7463064194 -0.4322156906
230 0 -12.6350631714 -0.1160824746 -6.6905875206
231 0 5.2672190666 -9.0824098587 5.628868103
232 0 12.4747114182 -8.0740013123 -4.4064674377
233 0 -9.4570131302 -9.807056427 -7.0209889412
234 0 -4.4251236916 9.3645067215 -0.1724686772
235 0 12.7145032883 2.7098670006 -2.6782674789
236 0 -12.7068376541 2.2048523426 -7.4687128067
237 0 11.2796583176 9.9620571136 -8.1854791641
238 0 -6.5562887192 13.4122114182 -6.2722654343
239 0 -4.9419455528 -6.8336334229 -10.7735557556
240 0 12.5454149246 -10.3132839203 -12.1987733841
241 0 3.6567699909 -4.6810026169 -9.1051769257
242 0 -3.4597799778 -2.0385088921 10.3025913239
243 0 0.0244788975 11.381688118 -8.7813091278
244 0 5.7056622505 -8.9158506393 -1.2469440699
245 0 -11.4959640503 5.7623815536 -12.2787847519
246 0 9.266166687 3.5934884548 -8.6329555511
247 0 1.7402575016 7.4617099762 10.7778835297
248 0 -10.1342124939 -10.3045721054 -7.4291687012
249 0 4.7506833076 5.6837048531 -6.3522119522
250 0 -9.129070282 -11.4567480087 5.9289402962
251 0 10.2883148193 6.5608501434 -12.1721553802
252 0 0.0580591336 7.9781708717 0.4463250637
253 0 -0.2443818003 8.8041582108 -1.64561975
254 0 3.328799963 -8.4101057053 5.9341497421
255 0 6.3673810959 -12.306936264 -6.8494033813
256 0 4.3028569221 3.0388150215 -12.8347005844
257 0 -5.3069291115 -5.3626856804 3.7817378044
258 0 5.4564523697 0.8493136764 -3.8289573193
259 0 -1.8744955063 12.2968225479 11.1598730087
260 0 13.6213102341 -0.4360950291 -3.5217192173
261 0 11.999420166 1.6888475418 -6.6445407867
262 0 4.4159884453 -3.1638062 -12.7852296829
263 0 -4.5876669884 -4.1493844986 9.4817790985
264 0 -11.9761209488 12.1429786682 -10.5539970398
265 0 0.6858493686 -6.2634663582 -1.3586941957
266 0 0.68742764 -0.9490407109 -4.5174341202
267 0 -1.2736635208 -3.7086744308 11.5979967117
268 0 -9.9555778503 -4.926820755 -13.6822595596
269 0 12.8859701157 -5.3941383362 -5.890501976
270 0 9.9605941772 -8.4022846222 -3.1179327965
271 0 7.2343049049 5.1932015419 -12.0963430405
272 0 -5.8514022827 -4.4139990807 -7.941213131
273 0 6.1795530319 -2.7326529026 8.118850708
274 0 -10.6208763123 -7.9780168533 -13.4063329697
275 0 -6.1717591286 -9.1688404083 12.6483612061
276 0 10.5659360886 8.5454893112 5.9363045692
277 0 5.1017961502 9.3257913589 0.7012737989
278 0 6.2602329254 5.0023393631 -3.5820550919
279 0 13.2872009277 2.0155866146 5.8930501938
280 0 -0.3985495865 -7.5934405327 13.4914216995
281 0 -5.5761270523 -1.04783535 -5.5399737358
282 0 -7.7199263573 -1.7756465673 -11.4755373001
283 0 1.0750892162 -6.0704932213 3.9092519283
284 0 -0.9186204076 -2.1331224442 -7.7355008125
285 0 -3.3478319645 11.0812692642 2.9350123405
286 0 -5.3080921173 13.0643730164 -2.8861865997
287 0 13.042014122 -9.5223121643 4.3774838448
288 0 -4.451233387 -8.86531353 -1.5656405687
289 0 4.0356020927 5.655462265 -11.1758995056
290 0 -4.8051886559 -9.7781429291 -4.1582016945
291 0 0.8227493763 -9.9677267075 11.5954465866
292 0 -1.0143527985 11.1641702652 3.3927795887
293 0 -5.2252902985 1.7217069864 -12.7631235123
294 0 3.2618482113 10.1082201004 -2.1446959972
295 0 -7.0145001411 12.6205482483 2.3657996655
296 0 -6.7593069077 -2.997149229 -1.2075840235
297 0 4.3356657028 0.8821786046 8.2122573853
298 0 13.4992876053 5.4565844536 -7.7472195625
299 0 -9.9875326157 -2.7759513855 12.9470529556
300 0 10.1137628555 -11.3451347351 -6.3581690788
301 0 -13.0170660019 -10.4224319458 -7.3345537186
302 0 1.1734648943 -2.0763828754 -6.7748966217
303 0 -11.2436943054 -5.567401886 13.6745834351
304 0 7.0727739334 -11.8050718307 10.1905288696
305 0 -10.9487323761 11.0447025299 -1.3593667746
306 0 2.3109540939 2.4736363888 12.8727712631
307 0 -7.5014300346 -3.392537117 -6.3347353935
308 0 -12.6944437027 -13.6389846802 11.8885059357
309 0 -1.1067566872 -13.6938533783 0.8864749074
310 0 11.0802965164 8.6366539001 -12.3611936569
311 0 -12.6651992798 13.1195211411 1.3696466684
312 0 -4.7824673653 -8.3515501022 -5.4880347252
313 0 -6.4530558586 12.357383728 13.4818677902
314 0 8.7447681427 7.9042954445 8.7443637848
315 0 -8.0885686874 -9.8140821457 -10.8977975845
316 0 -8.9862689972 -9.8930664063 -8.6077566147
317 0 -7.8646998405 -7.2359628677 2.9973778725
318 0 4.8701701164 13.0310659409 -0.9297665358
319 0 -6.9186792374 -3.9070477486 3.5390367508
320 0 2.4534115791 13.451546669 -8.5110816956
321 0 9.3868017197 -5.3131809235 12.1432514191
322 0 9.0657901764 -3.9974889755 -13.6942005157
323 0 -13.3661909103 -9.8918104172 1.8515449762
324 0 -6.9120135307 4.5250720978 10.9240884781
325 0 13.4417695999 5.1590099335 -3.7077875137
326 0 1.2876292467 3.667910099 -8.3486099243
327 0 10.4099683762 -1.4887579679 -6.2619719505
328 0 -11.5927782059 -2.9672789574 -10.0438642502
329 0 11.4918861389 -2.9006383419 1.7782018185
330 0 -10.5180959702 12.9128170013 10.3111505508
331 0 -11.4475383759 -4.6331486702 6.1926269531
332 0 -9.5649576187 -0.1387765557 -5.073302269
333 0 7.1676702499 5.2790260315 -9.4335269928
334 0 8.8334360123 10.0912761688 6.96966362
335 0 -5.9363594055 3.6571471691 4.9262042046
336 0 -12.6623888016 -9.0125713348 -13.2461118698
337 0 -4.842487812 -2.9478375912 -10.7574100494
338 0 -12.5350732803 -6.6040296555 7.82670784
339 0 -2.8553395271 -4.5560517311 -9.8946962357
340 0 -11.9953861237 -4.2228150368 -4.9670772552
341 0 13.060218811 1.6253230572 -6.9348802567
342 0 -7.6654100418 12.2404937744 10.4852237701
343 0 -11.4476795197 1.3517529964 2.5072760582
344 0 4.1050786972 -3.6794731617 -4.2182497978
345 0 1.9628039598 4.942340374 -0.1535543799
346 0 -4.8997392654 3.8216714859 -3.7036905289
347 0 -11.6054115295 1.5873657465 -6.726913929
348 0 6.3761181831 -11.0421619415 -6.8466544151
349 0 -4.33897686 3.5966806412 8.4075012207
350 0 -4.6151213646 4.2572379112 3.4647562504
351 0 1.1823545694 -11.75258255 -12.0224523544
352 0 13.3338336945 9.2248497009 -12.8893661499
353 0 -4.7071733475 -10.0196743011 -11.1704473495
354 0 -8.130109787 -7.9928655624 9.5245399475
355 0 -12.8809757233 4.1682963371 8.588385582
356 0 -13.6960544586 -3.6654355526 8.3955612183
357 0 -1.5572234392 -8.2331790924 -1.0511087179
358 0 -11.7668933868 -3.8713216782 -11.4789962769
359 0 -6.5346560478 1.6301435232 12.048116684
360 0 -11.0605916977 -8.8020915985 4.812623024
361 0 2.3441388607 12.9593658447 0.7132811546
362 0 3.9609973431 6.2231245041 6.8376111984
363 0 6.1721811295 4.0760660172 9.5130748749
364 0 -8.6037883759 -10.7108917236 13.0705823898
365 0 5.5773801804 1.7884011269 -12.313117981
366 0 0.7989893556 9.9279909134 -0.5571470261
367 0 3.8729450703 -1.2783665657 12.7265033722
368 0 -4.3886108398 6.1627078056 -10.3467874527
369 0 -6.1371574402 8.6805086136 -5.0822191238
370 0 -3.8870186806 -0.0271124989 8.615571022
371 0 8.1611022949 10.3875207901 5.2538676262
372 0 -11.357129097 8.701004982 -8.5501184464
373 0 7.1409487724 -2.2431235313 8.217124939
374 0 -2.6889238358 -3.276945591 -6.0357446671
375 0 3.3898341656 5.8271756172 -0.7107877135
376 0 -13.489730835 3.674331665 2.7064936161
377 0 1.0461708307 -1.0506834984 5.4874148369
378 0 3.7865817547 10.4024438858 2.6231782436
379 0 -13.1528539658 -4.1477432251 -5.6106481552
380 0 12.1758584976 -6.6002235413 4.0109429359
381 0 -3.6206290722 -0.4900299311 10.1184225082
382 0 -3.8458039761 -9.8658657074 11.8697147369
383 0 6.9904356003 -9.2518415451 3.2523252964
384 0 7.6893892288 -10.8811903 6.4779744148
385 0 4.463247776 8.4493637085 -7.0631160736
386 0 6.7940750122 -3.7617914677 3.8904342651
387 0 4.6054730415 3.1009602547 1.3384914398
388 0 11.5188922882 -1.5492167473 10.0732717514
389 0 -3.4582202435 -2.5603165627 5.4194402695
390 0 -8.6155643463 0.2428531349 -9.1507530212
391 0 -13.272480011 8.993639946 -9.8550815582
392 0 -9.8992862701 -11.2619571686 7.4206914902
393 0 7.5660762787 9.1428337097 3.9160823822
394 0 -1.349042654 -8.9794225693 -0.4295028448
395 0 -10.2920875549 8.4799566269 5.8929286003
396 0 -8.1898212433 -0.9332013726 -5.1366267204
397 0 -11.543718338 -4.7963418961 13.3265333176
398 0 0.5082085729 -3.1248774529 -1.1679288149
399 0 -12.5434265137 -8.0355892181 -6.3196773529
400 0 5.3084807396 -10.3706331253 6.4000911713
401 0 8.8844480515 3.82929039 7.8211913109
402 0 7.6260576248 -11.1871042252 0.9481306672
403 0 8.1919794083 4.4365353584 1.6813868284
404 0 -13.5988512039 6.7069854736 11.2900762558
405 0 -12.1061496735 6.029460907 13.4792900085
406 0 -11.1701107025 3.1946399212 13.5752210617
407 0 9.5029220581 4.4372253418 -6.0221204758
408 0 -12.3610057831 -6.0204529762 -7.2962565422
409 0 -1.2211033106 9.946852684 7.9258942604
410 0 4.6549329758 6.727057457 0.1033473685
411 0 9.3382196426 -13.6815729141 0.0406367183
412 0 13.4330806732 -7.7416243553 5.2530450821
413 0 -4.8193125725 8.7729129791 -6.2408065796
414 0 -6.4394483566 -8.1851787567 -10.7767057419
415 0 -0.5720255971 -7.5875654221 0.7933769822
416 0 -8.4508895874 -4.9002575874 6.6631932259
417 0 -9.6444196701 6.4135427475 -1.0582579374
418 0 -10.2292642593 -4.9453434944 -2.7759764194
419 0 -1.4511771202 -11.5102834702 -3.2243907452
420 0 -5.3812069893 -11.9918842316 -13.0567264557
421 0 -2.4466106892 8.0302295685 8.3773870468
422 0 4.9912748337 -4.7763843536 -7.109957695
423 0 5.3496441841 10.7939224243 -6.8991231918
424 0 9.8676939011 3.9868233204 -2.4372498989
425 0 -4.4107513428 -3.4758307934 7.7018003464
426 0 3.7698020935 10.1826295853 -2.9380896091
427 0 1.5518876314 -10.1561021805 4.50694561
428 0 -0.1185829043 3.4386570454 2.7836625576
429 0 -13.6272697449 8.7563724518 -13.310918808
430 0 5.1286091805 -3.946141243 -5.3325591087
431 0 6.2802596092 0.6019388437 -9.6020116806
432 0 7.8930082321 -2.369828701 6.9676580429
433 0 -7.9267215729 -8.1308469772 1.9817624092
434 0 8.2645959854 -1.1858056784 6.114066124
435 0 -6.5848884583 -4.7226877213 8.3211088181
436 0 -10.261680603 4.4134230614 -12.7052154541
437 0 5.0214290619 12.1775226593 -6.4028558731
438 0 -7.9424462318 -10.5784301758 9.0680065155
439 0 5.0592637062 -12.9859905243 1.678045392
440 0 -11.7849836349 3.4186697006 -11.6776151657
441 0 -2.1017870903 8.9875335693 -3.6545319557
442 0 13.3927583694 -1.8405833244 0.7896835804
443 0 2.8250310421 -9.2769346237 -11.3323173523
444 0 -11.1941204071 5.2728381157 10.835190773
445 0 9.891623497 11.4589271545 -3.4005141258
446 0 -13.331656456 4.3685483932 -7.5413856506
447 0 4.7537198067 -10.1043739319 8.4243803024
448 0 6.300157547 -5.1874680519 3.274818182
449 0 -3.0825519562 11.8673315048 -5.1887145042
450 0 -12.1865348816 6.4013404846 -12.7721424103
451 0 13.0259237289 6.1898441315 7.4579582214
452 0 12.3122749329 5.7391881943 -8.9638090134
453 0 -4.1287021637 3.2501575947 -10.9887342453
454 0 -12.8080463409 8.7936630249 11.5704660416
455 0 2.7974050045 -10.7045488358 7.773812294
456 0 1.1481194496 1.4669874907 6.522778511
457 0 -11.5227966309 10.3927345276 -13.4017114639
458 0 9.6471633911 2.2305736542 -2.9653923512
459 0 9.5608234406 -10.2178373337 5.6787843704
460 0 0.8597176075 4.327589035 -8.884771347
461 0 -5.0420255661 -2.3865373135 -6.568174839
462 0 1.090495348 12.6199016571 -6.7548093796
463 0 -9.917714119 -3.8786227703 -11.058385849
464 0 -10.9935569763 -7.0357761383 -7.3118977547
465 0 -1.6552816629 -4.068608284 4.1056876183
466 0 11.9452352524 8.8135175705 -1.3581779003
467 0 4.569311142 -9.6017999649 0.7948729992
468 0 -9.160733223 -6.3117160797 -7.8001298904
469 0 0.3613515496 -12.8102121353 -11.8530654907
470 0 3.6307783127 2.551825285 -2.9549376965
471 0 6.4118833542 11.1196107864 4.4588623047
472 0 -12.8925390244 -0.3830914497 11.8715696335
473 0 -2.4266097546 8.7210435867 -4.4189147949
474 0 2.3060131073 7.2762160301 -3.1319918633
475 0 11.5046682358 7.8474464417 -13.274184227
476 0 -7.7697377205 7.5486588478 6.6866021156
477 0 3.5285263062 3.945207119 -5.2781281471
478 0 -3.6710789204 6.0669536591 -0.9439206123
479 0 -1.5062953234 -2.938441515 -2.5597748756
480 0 6.1165633202 -5.0021653175 -2.0195133686
481 0 10.8716163635 -6.2455191612 2.1103551388
482 0 3.7539720535 7.7532329559 4.6913127899
483 0 -5.2607698441 10.8011226654 -2.3183803558
484 0 -3.38266325 9.4289617538 -9.9630031586
485 0 9.5083713531 -2.3881092072 4.299282074
486 0 6.5544929504 6.8590154648 3.0418617725
487 0 -1.2254772186 5.8330607414 1.5604807138
488 0 -4.5975704193 -5.4913253784 -4.0730171204
489 0 1.3664368391 -12.2742757797 0.7447600961
490 0 -9.7143182755 6.5168466568 6.7378120422
491 0 -9.3088293076 -8.3665361404 -12.8142137527
492 0 -11.2069044113 -5.3473963737 -11.6010160446
493 0 4.5272216797 12.4158821106 12.6973581314
494 0 -4.8720779419 6.9880743027 10.4283103943
495 0 8.3800926208 -9.7981796265 11.7937231064
496 0 -3.3560297489 1.1465328932 3.9555521011
497 0 13.3923091888 6.4516177177 1.2901972532
498 0 -10.5987634659 -9.7136926651 -6.7701630592
499 0 11.0973291397 3.3025903702 6.2192187309
500 0 4.8819599152 11.541727066 12.8191490173
501 0 13.2487363815 -0.2224422842 10.7998228073
502 0 -6.9267349243 5.1488528252 9.2665615082
503 0 -12.8800725937 -11.6102542877 -12.587975502
504 0 -7.7302699089 -2.1981372833 -0.1300624013
505 0 2.3007929325 -4.3619594574 9.99031353
506 0 3.5003945827 -7.472679615 -1.5459975004
507 0 7.3899002075 -7.4885988235 13.1678543091
508 0 -0.5545054674 -8.2590379715 9.405125618
509 0 2.4875557423 -10.6001844406 -4.8528680801
510 0 -8.4933490753 -0.9595397115 9.8266830444
511 0 -13.4906234741 9.3285512924 -7.7564191818
512 0 13.0318593979 0.0310937855 11.7645168304
513 0 13.7098255157 10.800321579 10.0685968399
514 0 11.0125455856 9.9696760178 3.7735958099
515 0 -3.720937252 -2.2738080025 3.9702887535
516 0 -10.0062179565 -10.5585594177 -4.2523655891
517 0 9.7688817978 6.225880146 10.6138000488
518 0 -10.4674520493 -7.1819968224 0.4520979226
519 0 -0.8725349307 1.8677563667 6.9102129936
520 0 1.7318813801 11.2002458572 11.6015348434
521 0 6.9083509445 11.5492811203 -1.2865694761
522 0 11.7102994919 -8.8143367767 12.4119224548
523 0 -6.1170630455 -9.0916929245 -10.5232429504
524 0 -0.5894627571 -5.980070591 -7.5758833885
525 0 8.2727899551 -11.0475530624 13.4069414139
526 0 -4.1570477486 -6.0489397049 5.4978394508
527 0 3.5856275558 2.4219396114 -11.1760091782
528 0 10.0467195511 -10.6424894333 -11.1620597839
529 0 -10.4106349945 -3.398485899 5.7970933914
530 0 -13.6939306259 0.2635833323 13.4163665771
531 0 3.002286911 -4.5985155106 3.1746726036
532 0 -12.841627121 4.2412137985 5.6451206207
533 0 6.0678529739 4.9326667786 -6.7678637505
534 0 -1.298206687 12.5857973099 -11.843372345
535 0 7.2272491455 11.2954750061 9.6733264923
536 0 -2.5411846638 8.3191900253 -12.1790037155
537 0 5.3706641197 4.7331514359 -0.6787513494
538 0 2.2981927395 -1.9797201157 5.8578467369
539 0 3.3868162632 -8.514497757 11.6537475586
540 0 -13.4910402298 -8.4978532791 -6.2041139603
541 0 10.8886823654 3.2995483875 7.3685288429
542 0 10.5663833618 -8.6236076355 4.1641864777
543 0 1.6056547165 -5.1024103165 11.3772964478
544 0 3.9824523926 5.9574961662 3.6194736958
545 0 5.1215796471 -1.109777689 5.0805587769
546 0 -8.8857812881 6.7185382843 7.2913007736
547 0 6.3034114838 -7.404487133 10.9915418625
548 0 11.5342130661 -0.5574138761 -4.2546129227
549 0 11.7728042603 -6.8748760223 -5.3995423317
550 0 2.5944218636 -9.6954202652 -0.4647961557
551 0 1.3875017166 8.3563575745 -3.5495364666
552 0 -8.5829238892 10.3628940582 -4.0826411247
553 0 -4.7212352753 1.1987276077 0.5173531771
554 0 -12.2660999298 -4.6615638733 12.8863992691
555 0 2.7226953506 11.9393568039 -6.8097529411
556 0 -3.8891761303 13.1496114731 12.6765785217
557 0 10.7068929672 10.3612585068 10.1399641037
558 0 4.1549482346 -4.8606715202 -12.1527738571
559 0 5.2393894196 8.1186504364 12.6567173004
560 0 -3.474303484 -10.232211113 -7.7425727844
561 0 -2.8035266399 10.3247003555 -11.4883956909
562 0 4.6909413338 -5.674598217 3.5446696281
563 0 5.2719345093 1.1788022518 3.1764552593
564 0 -5.6757001877 10.1071119308 -5.0302858353
565 0 -10.6083450317 1.1992409229 -12.6082868576
566 0 -13.7131080627 1.3984196186 -6.168838501
567 0 5.2387709618 1.8776708841 -4.1427268982
568 0 -0.8592156768 -3.9237463474 -3.5098948479
569 0 8.5414876938 3.6939725876 -1.139218688
570 0 2.7289969921 8.097650528 -2.4838957787
571 0 12.23295784 1.0079405308 -3.3438301086
572 0 -7.9642572403 -5.7248706818 8.4784030914
573 0 -5.6520299911 13.1581459045 12.274764061
574 0 9.7893590927 8.0257835388 8.7869720459
575 0 -3.2027366161 1.9086321592 -12.8619213104
576 0 7.3373551369 10.5663709641 0.5853075385
577 0 -7.5303578377 -7.697830677 0.2627959251
578 0 10.7946958542 -1.2140958309 -9.7660722733
579 0 -9.2434797287 -11.6996870041 -8.2309207916
580 0 7.4361829758 -4.3690943718 6.71413517
581 0 1.8337984085 -6.2120661736 -0.2849316299
582 0 -2.4178621769 5.9356532097 13.0329408646
583 0 12.5200614929 -0.8720094562 13.3697528839
584 0 -2.4540882111 -13.6258440018 10.2443447113
585 0 8.3009605408 -10.3719301224 5.43349123
586 0 1.9462512732 2.6723344326 -1.9800753593
587 0 -6.3593239784 -7.5496177673 0.001291275
588 0 -11.6684942245 1.0894691944 8.7660055161
589 0 -11.8534708023 2.6086027622 6.8573961258
590 0 -1.4355627298 -10.3316993713 -6.2858924866
591 0 -10.5458154678 5.495206356 -4.7931966782
592 0 -4.6329197884 -13.6580238342 -5.2361936569
593 0 4.3199939728 11.1124420166 -2.0846540928
594 0 10.451915741 -13.1222343445 5.5634083748
595 0 8.1766176224 -7.0780158043 -12.6205472946
596 0 11.8074264526 11.2379350662 -6.928545475
597 0 10.458530426 -6.6197595596 4.648270607
598 0 -3.8893413544 7.5456371307 2.8780553341
599 0 8.2106933594 -10.3953285217 9.571264267
600 0 11.3178100586 10.7329053879 5.3166713715
601 0 0.1058851182 10.1009702682 -5.4040269852
602 0 -8.9447612762 -7.8395433426 -1.7928700447
603 0 0.8667262793 -7.4551696777 5.3033390045
604 0 10.9384412766 -5.5741887093 3.1185061932
605 0 -0.5624197125 4.672811985 -10.1397714615
606 0 -0.0584022924 13.1886749268 -7.3887429237
607 0 -11.4052419662 -7.3019948006 3.6771965027
608 0 -11.2058191299 3.892198801 7.5123467445
609 0 2.7952456474 8.4558048248 1.3828927279
610 0 -6.6671772003 -2.8856608868 -7.1254458427
611 0 -10.403046608 11.5094680786 12.6398429871
612 0 8.66522789 -9.1979761124 -2.0438756943
613 0 10.1174325943 10.8323888779 -12.5024700165
614 0 -4.5895895958 -11.1087284088 5.9193091393
615 0 -1.7985905409 3.0057513714 -1.6033215523
616 0 -4.8879327774 3.6239323616 -12.6009654999
617 0 3.7041807175 -10.0600223541 3.564385891
618 0 -2.3637721539 13.3840036392 13.022851944
619 0 2.6129684448 11.2166976929 -12.0664901733
620 0 13.6814470291 -7.6865801811 -10.2951831818
621 0 -9.4696588516 5.1290111542 -6.8781409264
622 0 5.081407547 13.7287216187 -6.523393631
623 0 -7.686384201 5.0708866119 9.8529033661
624 0 6.0299406052 -13.7176713943 -11.9873123169
625 0 8.3358106613 -5.9336342812 -0.7128575444
626 0 2.6992208958 -7.4027552605 4.0887928009
627 0 5.2001171112 -8.7416439056 12.0823659897
628 0 -6.7644958496 -7.2857122421 -2.6082856655
629 0 13.4753494263 4.3330731392 -3.0237019062
630 0 3.8995821476 -9.690114975 -7.2211608887
631 0 12.2001085281 8.2309646606 -11.2508277893
632 0 10.2827234268 -4.7296171188 -9.0024414063
633 0 -8.7458839417 0.1642893553 -10.3560848236
634 0 4.2296805382 4.4551262856 -6.2063322067
635 0 -1.2380162477 4.3307461739 -2.542062521
636 0 -1.1732375622 -0.2916338742 -4.1390972137