ITEM: TIMESTEP
0
ITEM: NUMBER OF ATOMS
15625
ITEM: BOX BOUNDS pp pp pp
-13.7473011017 13.7473011017
-13.7473011017 13.7473011017
-13.7473011017 13.7473011017
ITEM: ATOMS id type x y z
1 0 10.0155296326 -4.3480625153 -6.2799577713
2 0 -5.1592626572 -6.6420168877 1.1421900988
3 0 0.4614602625 -6.818775177 -12.2331914902
4 0 6.0305767059 9.5781831741 4.4050607681
5 0 8.0680932999 -5.6472029686 9.5754957199
6 0 -5.1549100876 0.5163106918 12.9414396286
7 0 -0.7386737466 2.5354626179 -1.1799359322
8 0 3.3114278316 -10.3245754242 -7.2296705246
9 0 1.9317086935 12.396478653 -10.9282426834
10 0 3.9282536507 -0.6396279335 -6.0095076561
11 0 7.1389966011 13.0308179855 7.8883676529
12 0 -8.4095716476 -0.556637466 -2.7942826748
13 0 -5.1571793556 7.5589904785 7.9337863922
14 0 9.0193281174 11.915599823 -2.9907104969
15 0 12.9822101593 10.2916345596 6.919880867
16 0 -7.6869153976 4.1904911995 11.0833940506
17 0 -4.2696580887 -11.7024555206 -10.670996666
18 0 -9.8353710175 -11.6998519897 -6.0858454704
19 0 11.3867902756 7.7553548813 -1.8151216507
20 0 12.018740654 3.29023242 -11.3084039688
21 0 -1.5733190775 -5.4133367538 11.3959579468
22 0 1.3246895075 0.8025753498 -0.4519366324
23 0 11.9673175812 -1.8786213398 -2.9884397984
24 0 -9.2813501358 -8.9984579086 -0.5012534261
25 0 8.6774368286 -7.9077386856 5.8082866669
26 0 -5.1847686768 0.1486580372 -13.6932182312
27 0 6.3783230782 4.9899892807 6.5017981529
28 0 -11.1168909073 11.9681034088 1.7498364449
29 0 5.3796744347 -7.5089621544 -10.9254560471
30 0 -11.3284807205 -10.1134185791 13.6902523041
31 0 4.1283392906 11.0108938217 4.2943577766
32 0 -0.0248023961 4.8548007011 -5.5483350754
33 0 5.3236479759 -5.6853890419 -4.5453352928
34 0 6.8963022232 0.0474987701 -0.4028965831
35 0 -7.7032475471 3.570104599 -8.8551521301
36 0 -9.1321182251 -2.6036756039 9.8159713745
37 0 10.0444498062 -9.7443265915 -5.2798380852
38 0 8.5443954468 4.5176587105 4.9923639297
39 0 -3.5893907547 -11.8205108643 -12.3220367432
40 0 -1.8387255669 12.9167375565 -13.0731716156
41 0 -6.8854513168 -9.7746982574 -4.0691828728
42 0 1.222900033 -1.0799343586 -10.4181499481
43 0 10.7957954407 11.8733062744 -0.748232305
44 0 8.2662763596 -0.9096434116 8.3446063995
45 0 -9.0863389969 -6.3541355133 13.0515775681
46 0 -10.7729845047 6.0906257629 -0.1884195656
47 0 2.3757090569 10.253030777 2.1109855175
48 0 -0.8088678718 -7.8339748383 8.1275777817
49 0 -11.9024085999 5.8613419533 -1.9217659235
50 0 9.0553655624 -10.506690979 -11.5626602173
51 0 7.8108921051 -0.3795239925 5.9828548431
52 0 11.8958082199 -2.7475044727 -2.7320840359
53 0 7.6073184013 9.7730064392 -5.8218669891
54 0 -11.2134628296 8.6809244156 11.5657281876
55 0 -6.6088376045 9.174659729 -5.1702685356
56 0 -6.9245004654 12.661400795 -12.2328920364
57 0 8.9628801346 -5.0003705025 -1.1788235903
58 0 4.9054250717 3.4602856636 -8.5242166519
59 0 -3.1017115116 -6.8588266373 3.0298273563
60 0 -12.3418569565 8.0545415878 -0.3971227109
61 0 11.2586221695 -1.5607155561 -2.6092197895
62 0 -3.7608537674 -12.1506881714 2.135736227
63 0 -1.5002231598 7.9579758644 11.3123817444
64 0 6.4337930679 -8.4661912918 6.8990607262
65 0 4.8767790794 3.369992733 5.7214045525
66 0 12.99792099 -0.3868618906 -11.5555868149
67 0 10.3239774704 -9.9953565598 8.0528459549
68 0 -1.7740134001 3.4658575058 -4.4232883453
69 0 -13.0502948761 13.304983139 -8.781036377
70 0 3.7374165058 0.5002088547 -3.7005600929
71 0 3.684687376 11.7772874832 -10.1176795959
72 0 2.1800057888 -5.2768139839 9.6897687912
73 0 -4.3306155205 -11.4614315033 6.8428454399
74 0 0.7150921822 -0.8501721621 9.4947986603
75 0 4.6688623428 6.6471252441 -6.4311189651
76 0 1.1298338175 7.2012286186 4.4163331985
77 0 11.1961688995 -0.2061257958 -6.6885738373
78 0 3.7163259983 -3.4318625927 -5.6033101082
79 0 7.0186257362 11.0517940521 -9.5617380142
80 0 -3.2247400284 10.0127887726 7.1926116943
81 0 12.1246852875 -3.7448265553 12.1406698227
82 0 0.073449716 -1.1238715649 -9.3760843277
83 0 -13.2553825378 2.9677155018 -13.2095546722
84 0 -0.2811429203 5.9063439369 -4.0531635284
85 0 -0.1056299955 -12.4321527481 -12.3649997711
86 0 2.8226718903 -2.5754599571 8.2593069077
87 0 5.6298193932 -6.864677906 -8.2748117447
88 0 -8.9189796448 11.9417695999 1.2846236229
89 0 1.7636381388 -7.2067394257 -8.6931285858
90 0 12.0298919678 6.3115625381 -7.315808773
91 0 -1.7856020927 10.6884059906 -4.2662906647
92 0 5.8198852539 0.7725998163 -12.3658809662
93 0 2.9607830048 -12.4922418594 -8.3691101074
94 0 4.7046236992 -11.6719093323 2.0078334808
95 0 -7.6672930717 -0.9909966588 -8.1472854614
96 0 -12.2929706573 8.4223423004 -6.891705513
97 0 -12.4599046707 13.3408575058 1.3786737919
98 0 0.1103920937 -8.2624464035 4.0800738335
99 0 11.7488546371 -3.902410984 0.4377979934
100 0 -5.6874904633 -8.7720575333 -4.1604857445
101 0 -4.3469419479 10.37449646 -8.8575716019
102 0 -11.2006521225 -1.9251984358 5.1188955307
103 0 11.0584392548 13.5335283279 -12.111038208
104 0 -3.2296373844 8.1032810211 -11.493686676
105 0 9.0979223251 7.9857778549 -2.96017766
106 0 12.8143014908 2.9870603085 6.6757321358
107 0 2.9507036209 -6.857749939 -12.0407438278
108 0 -2.0805294514 2.4262447357 2.866840601
109 0 3.5210843086 -7.2689065933 7.0701608658
110 0 10.8933324814 6.1382346153 -6.1319794655
111 0 -1.7032065392 11.6882743835 -4.5160694122
112 0 5.4381074905 8.0404911041 -1.5465040207
113 0 10.8688631058 1.1296718121 7.098335743
114 0 -6.6762018204 -5.083761692 10.0909996033
115 0 -0.0649764016 10.6985721588 -2.9606940746
116 0 -10.6421995163 -0.2834795117 7.3535933495
117 0 -1.011320591 -6.1074914932 -0.5000504851
118 0 -7.9170441628 3.7278294563 -13.097155571
119 0 10.2254161835 -7.4521970749 -3.4308466911
120 0 0.2006526142 -2.5321772099 -4.5525574684
121 0 4.7282357216 -8.8411140442 -3.7624380589
122 0 10.0935688019 4.2024283409 -7.0691366196
123 0 -2.7376878262 -4.7880415916 13.656247139
124 0 12.8043088913 -2.6641745567 -1.088437438
125 0 11.3958930969 -3.6138088703 -6.1770420074
126 0 10.160826683 -2.8849675655 4.0205068588
127 0 -9.8867588043 -3.2911062241 -9.9226875305
128 0 -12.042301178 -12.7218618393 7.9887862206
129 0 4.138261795 -1.9636451006 7.0206723213
130 0 -5.1241431236 -1.393330574 -9.6724872589
131 0 1.3081437349 -10.7618265152 -2.8115084171
132 0 -1.0211216211 3.9322059155 -0.7499527931
133 0 11.0878744125 -10.4912195206 -12.1422348022
134 0 12.4291687012 -8.7563142776 -13.5208892822
135 0 -2.3337404728 6.143289566 -8.78125
136 0 -3.8463394642 10.4888162613 13.6347932816
137 0 12.6414909363 10.1087236404 4.3873844147
138 0 10.3798856735 1.2884631157 10.0795907974
139 0 -6.915204525 -12.9820861816 3.4555802345
140 0 -12.7240428925 1.6697540283 -6.6720666885
141 0 -1.0759484768 -8.2616424561 3.858602047
142 0 8.8503198624 10.7314682007 -12.8566064835
143 0 5.0936250687 -2.2062506676 7.1468958855
144 0 7.7503266335 -4.2701296806 -0.853760004
145 0 5.6876292229 -13.0923862457 -12.6033973694
146 0 -11.668595314 4.7942976952 -9.4958267212
147 0 -5.4699287415 -3.3784384727 6.1949057579
148 0 -3.1720151901 -7.1454520226 -0.2870967686
149 0 9.0420207977 -0.7212269902 7.6909990311
150 0 -7.6970181465 -13.0468931198 -5.9380917549
151 0 -11.9136686325 12.1693582535 8.0770483017
152 0 8.7119731903 13.3598814011 -8.2384500504
153 0 2.7221090794 8.4698753357 -13.221116066
154 0 -1.5358242989 -12.6680898666 -13.5667171478
155 0 9.7985944748 11.0893783569 -4.7147126198
156 0 11.1372709274 2.6768724918 -0.9694396853
157 0 7.467813015 -6.0571041107 -5.7621240616
158 0 -6.2690992355 -4.9370932579 3.4945650101
159 0 -0.1908581257 0.11389146 -2.6931660175
160 0 -6.0772695541 -5.8483681679 12.2282161713
161 0 -10.7589569092 2.3325600624 6.5477032661
162 0 -5.0371723175 -5.0191249847 3.3900279999
163 0 -1.8177555799 6.814514637 -0.5212285519
164 0 8.7374401093 -13.1589479446 5.4425535202
165 0 11.3085069656 7.074429512 2.4140560627
166 0 -12.5607776642 7.7239432335 0.5150634646
167 0 12.9238777161 -9.8731384277 -3.1429076195
168 0 3.1465082169 -11.1261806488 -9.4164524078
169 0 13.0422515869 -13.3709983826 0.3650698066
170 0 -5.1411018372 9.9042053223 -6.9245834351
171 0 -8.2171401978 -7.7936930656 10.5842828751
172 0 6.6195926666 12.5077934265 -2.3723537922
173 0 10.4086380005 -1.7855638266 0.9571876526
174 0 12.9690561295 8.5875453949 2.4852766991
175 0 11.6711235046 9.5489444733 -7.5776062012
176 0 -9.8110561371 -9.6916656494 -13.0336694717
177 0 -12.9127588272 6.1722607613 5.6727457047
178 0 2.644077301 3.798220396 -4.3895931244
179 0 1.2260348797 -6.5086522102 9.41314888
180 0 -3.7321360111 10.7895736694 -4.9592866898
181 0 3.8470954895 5.2564277649 5.2454161644
182 0 1.0817469358 -13.0230388641 -5.1877536774
183 0 5.2489085197 10.6173563004 -13.5467185974
184 0 11.2459945679 10.4700050354 6.4080610275
185 0 6.2109513283 13.7223730087 -2.4540133476
186 0 2.844025135 5.7865605354 7.1045103073
187 0 -5.3942708969 -11.8579130173 4.2374777794
188 0 -12.8284950256 0.9421740174 11.5554904938
189 0 5.4003982544 9.9363965988 -6.4203195572
190 0 -6.7409424782 -1.041888833 13.568944931
191 0 -12.4674787521 4.7381973267 13.6056060791
192 0 3.8996500969 9.0835313797 -9.7414112091
193 0 -3.890679121 -5.8066372871 -13.1909389496
194 0 11.3276357651 4.7044110298 -1.431658268
195 0 -6.152569294 -3.8899357319 5.7854394913
196 0 13.227809906 1.2329086065 -4.7972688675
197 0 -10.379442215 10.4343252182 -12.336596489
198 0 -4.4915094376 -0.8447437286 -9.7942934036
199 0 -9.6781234741 -1.3084236383 2.4158203602
200 0 3.629342556 -4.1062035561 3.2998323441
201 0 13.4349431992 -6.7071523666 4.2029924393
202 0 -3.7986547947 2.4587516785 9.2886266708
203 0 -7.9545493126 -9.5166692734 -9.2777862549
204 0 13.6905517578 9.0327157974 -5.8388690948
205 0 7.3509836197 -8.7482881546 -11.5730476379
206 0 2.3912091255 -6.8804016113 -5.8228092194
207 0 -12.2836618423 5.6570658684 6.5201869011
208 0 -5.9799938202 1.9486359358 9.0908689499
209 0 -12.9226264954 9.670211792 0.9419563413
210 0 -3.7677044868 -5.4570980072 -3.2655570507
211 0 1.2951545715 3.3086776733 2.8653123379
212 0 8.8958892822 -3.7187387943 3.7978236675
213 0 6.419916153 4.1194868088 -3.6581799984
214 0 -8.2567939758 -4.667069912 -5.7576961517
215 0 2.5820658207 -1.8721770048 3.5376486778
216 0 10.9646625519 6.0132498741 -5.2189149857
217 0 0.9454097748 -7.3683099747 5.4589195251
218 0 -4.9222769737 5.9677200317 13.299697876
219 0 12.8329076767 0.1751734316 -9.0095891953
220 0 -4.6793651581 11.724360466 -9.8778619766
221 0 4.6443152428 -10.4695491791 -4.7577581406
222 0 -5.6951212883 -8.0572786331 12.6331319809
223 0 8.7338323593 -7.3039102554 -6.530424118
224 0 -5.5687074661 4.8630800247 -6.6451735497
225 0 -9.1686544418 10.6363859177 -8.3671607971
226 0 -4.3162150383 -10.4208555222 -3.7664842606
227 0 12.3107633591 10.8490304947 2.36820364
228 0 -11.922908783 7.9257488251 -9.5035228729
229 0 -0.5366159081 -0.4932098687 6.7880635262
230 0 4.7419295311 -10.8536663055 2.3378784657
231 0 -5.9876093864 10.306479454 4.2598223686
232 0 -6.5439500809 -2.0924987793 12.4628410339
233 0 -11.8819894791 10.448299408 7.2063822746
234 0 -2.1481761932 0.4455774426 -2.4427530766
235 0 -12.848192215 -11.5483407974 -8.1241865158
236 0 10.8318223953 6.4122796059 6.5772423744
237 0 0.9637966156 4.6750397682 4.146832943
238 0 9.9364976883 1.4970098734 12.1423368454
239 0 2.6444981098 -9.4519968033 13.0416479111
240 0 7.80443573 -8.1435031891 -6.4028911591
241 0 -13.2531137466 2.6386938095 -1.5870825052
242 0 11.9343080521 -7.3172798157 11.5829172134
243 0 -8.7631263733 -10.2155857086 8.8267154694
244 0 -9.3535442352 -7.7872357368 -10.6948699951
245 0 -3.1415419579 11.320274353 11.7934617996
246 0 12.2493286133 -6.876914978 9.1069002151
247 0 2.4253501892 -5.2354001999 8.7056684494
248 0 -3.662996769 7.6508202553 -10.1720514297
249 0 -2.3022797108 -7.4981713295 8.2251377106
250 0 -6.7073788643 -11.5522794724 11.5476646423
251 0 9.0697488785 -10.1383419037 4.2586922646
252 0 6.0830745697 -6.0502610207 7.2568149567
253 0 -1.9312822819 0.66173172 3.6297147274
254 0 -10.2565002441 11.9810237885 -6.7016220093
255 0 10.6954631805 -9.4406738281 12.2255868912
256 0 -3.6934397221 -5.3414940834 10.5463418961
257 0 11.8734226227 -1.5803343058 -0.036765147
258 0 -12.0512218475 -0.1835298687 -2.9332101345
259 0 -2.8894190788 -3.314384222 10.7821435928
260 0 11.8648319244 -12.8244848251 11.5205307007
261 0 9.7694396973 -10.7914581299 12.3629875183
262 0 12.1046800613 -0.068625398 1.6649065018
263 0 0.4526584446 -13.4049968719 -0.5414007902
264 0 7.3434433937 4.6284837723 -10.1939764023
265 0 -6.965282917 9.0179319382 -13.1515989304
266 0 3.7307393551 -2.0295786858 -9.5423736572
267 0 -13.2620954514 6.4917507172 12.262339592
268 0 5.4657883644 11.7476739883 -0.1308992803
269 0 12.2806825638 -12.8123664856 -5.5287761688
270 0 4.3814177513 10.0495653152 -10.8963918686
271 0 7.6192965508 4.3580493927 8.0003995895
272 0 2.4939799309 -1.2785087824 5.9896535873
273 0 13.11145401 -8.0689849854 7.6422486305
274 0 0.7142147422 1.8326649666 2.2058212757
275 0 -10.0264902115 3.3104798794 7.5516629219
276 0 3.9685359001 12.9196958542 -13.6453475952
277 0 -7.2185330391 -1.7781257629 -13.2476625443
278 0 0.958030045 -7.4569525719 -1.2437455654
279 0 1.9371752739 -2.3509190083 9.2301864624
280 0 2.7914509773 11.9087572098 1.9931161404
281 0 -11.4879169464 -9.9375247955 -5.691804409
282 0 -6.6631603241 2.3850824833 -8.3701324463
283 0 -7.073533535 12.0167961121 -9.1540346146
284 0 2.9879126549 2.7516260147 8.6945619583
285 0 -13.2711420059 7.7855410576 -10.985411644
286 0 -4.3937482834 -2.1793940067 -1.5333077908
287 0 8.0564622879 3.0504477024 4.5061655045
288 0 -1.6608409882 10.2722921371 7.5777301788
289 0 -5.3225293159 8.3437204361 -6.3346142769
290 0 12.4790649414 1.5779378414 11.9519491196
291 0 -8.6516284943 -12.3988075256 0.3846311569
292 0 10.4566411972 -12.353146553 10.2808847427
293 0 2.7247092724 10.2003211975 1.2284241915
294 0 1.1562530994 -6.5524706841 -4.9813361168
295 0 9.693696022 1.2362174988 0.7542712688
296 0 -5.4789652824 -3.5396478176 1.608295083
297 0 -11.0011329651 8.0801420212 -1.2532594204
298 0 8.6060066223 -2.8659365177 8.9386987686
299 0 0.5937454104 -2.519867897 0.7338672876
300 0 2.1157231331 -6.07426548 11.3924131393
301 0 -4.681415081 3.5269367695 0.1213946417
302 0 6.4132404327 -9.2038726807 -11.8953332901
303 0 4.4473204613 2.3295161724 12.2974967957
304 0 -11.1676721573 13.4888687134 -7.5679502487
305 0 3.4304931164 3.0343270302 3.7183208466
306 0 -8.0387763977 6.0858025551 2.2290718555
307 0 -2.3855650425 -6.1495723724 -1.9923546314
308 0 9.604765892 -1.0717579126 -4.4573307037
309 0 6.7929530144 11.8699054718 -1.4457242489
310 0 2.6896550655 -4.8435111046 -1.5321272612
311 0 1.3532607555 12.4694986343 6.7505674362
312 0 -1.0367782116 -0.5642266273 10.1042346954
313 0 -3.4414591789 -12.4173402786 9.9042301178
314 0 13.5049276352 -2.8608100414 -1.9609233141
315 0 -5.0666155815 5.0898828506 11.272895813
316 0 3.8920128345 8.0739774704 -1.6021684408
317 0 1.6122546196 -4.3878550529 11.9901771545
318 0 -7.9851517677 5.7530217171 4.7188363075
319 0 -6.8542485237 0.4578174055 0.5083931088
320 0 6.8440489769 11.7812919617 4.7595610619
321 0 -8.7996349335 11.3882923126 -6.5105843544
322 0 3.4129953384 0.790956676 -0.1502347291
323 0 -12.5359582901 -4.9927744865 -5.1130399704
324 0 11.7994041443 2.5559978485 6.8430957794
325 0 -1.3286825418 -1.4735372066 4.9475450516
326 0 -2.0552368164 -7.5429177284 -9.8078327179
327 0 2.9701187611 5.1089448929 12.8290872574
328 0 -1.595834136 4.6559228897 -5.897500515
329 0 -6.6137795448 -8.2686882019 12.6108541489
330 0 -12.0399160385 -2.88098526 2.5673532486
331 0 7.8080563545 -4.3345761299 12.7992105484
332 0 11.5031547546 -4.3975262642 11.1942491531
333 0 -10.5909891129 5.3082780838 -10.8327608109
334 0 7.9084272385 7.4162373543 -2.0895736217
335 0 -4.568628788 -1.2735962868 -2.1573486328
336 0 -1.6577926874 -0.0395597592 5.5524291992
337 0 2.2654597759 5.1191396713 -9.7174081802
338 0 11.470574379 -4.9821038246 -0.0351989791
339 0 -7.2051968575 -0.4244284332 8.00020504
340 0 -9.2615861893 9.9832048416 4.8682742119
341 0 9.4003667831 10.8116855621 -0.1137132645
342 0 -13.6062459946 -5.8137030602 -8.3645849228
343 0 -6.4055738449 -6.5659132004 -12.4968748093
344 0 0.4515505433 7.7580838203 -7.8796067238
345 0 -9.822101593 -13.3378486633 4.6003146172
346 0 -8.5614738464 -9.7541570663 5.0720043182
347 0 -4.8055739403 -4.6573371887 9.1380386353
348 0 1.2926191092 10.2150745392 4.3409023285
349 0 -3.9587748051 -9.3593053818 -9.4199609756
350 0 -1.9092694521 -5.6730270386 -2.3971045017
351 0 -2.9920527935 -4.7602186203 1.7715357542
352 0 7.1704101563 0.6571301222 11.9021692276
353 0 4.3598818779 8.8750953674 -11.4405250549
354 0 3.4106099606 13.4343500137 4.2148590088
355 0 -0.6205846071 5.6362538338 -11.0618429184
356 0 2.0005116463 10.1882019043 -13.0215377808
357 0 6.1844882965 -3.2897348404 -12.5082149506
358 0 -13.2328538895 2.9357419014 4.888988018
359 0 -5.4802999496 -5.0796113014 13.6017131805
360 0 -12.1207008362 4.9528193474 -12.8181705475
361 0 -4.1689338684 9.9659223557 -12.9013757706
362 0 -10.22265625 10.3303785324 -6.599922657
363 0 8.4487361908 2.4191818237 -9.0900859833
364 0 5.2591629028 11.497262001 -7.8352813721
365 0 -5.5284385681 -10.6554737091 -7.2408742905
366 0 -0.087121807 4.9940228462 2.2317655087
367 0 -3.49619174 -6.2650570869 8.5814552307
368 0 9.150724411 -2.4670832157 7.8294920921
369 0 -6.9786329269 4.9765973091 -3.9489827156
370 0 9.0751886368 9.0019330978 -9.0385684967
371 0 -13.5810165405 1.227684021 3.9606454372
372 0 -12.9555902481 8.8129892349 -4.7770133018
373 0 -8.025308609 -10.9410295486 -7.8862857819
374 0 -1.1369439363 -1.3608353138 -7.3572773933
375 0 -4.8402638435 -12.2761135101 -13.3165845871
376 0 -12.2143173218 -12.6653547287 1.7926825285
377 0 9.3819599152 -1.8962459564 -5.9447951317
378 0 -8.9727010727 7.1212759018 7.4756174088
379 0 -2.333262682 3.4333810806 -12.6245880127
380 0 0.013696027 -3.3585851192 3.3101961613
381 0 13.6599998474 13.4499006271 3.9533493519
382 0 -12.3028697968 -6.3749980927 12.0809144974
383 0 -12.9010009766 -1.7076230049 7.3438515663
384 0 -3.3826189041 -2.1241316795 0.1216817051
385 0 7.9020090103 -10.3834276199 5.9540872574
386 0 9.9332103729 -4.9312291145 -8.7296962738
387 0 -6.6616721153 9.8679637909 2.377145052
388 0 12.928440094 -1.0159963369 12.2914524078
389 0 11.1649999619 11.1545619965 -1.0618861914
390 0 -0.0083096679 -2.0270895958 12.4447774887
391 0 -8.2380638123 -8.1009273529 11.7539110184
392 0 6.7143111229 0.3289178312 3.9749822617
393 0 -13.1113405228 -13.6114730835 13.5795955658
394 0 10.6206998825 -6.1001491547 11.4109315872
395 0 -4.6048955917 6.6798658371 12.9574604034
396 0 -7.7964992523 7.1840691566 2.1748933792
397 0 7.4914069176 8.8657207489 9.2552757263
398 0 -0.1166966408 -4.2709350586 13.3441524506
399 0 8.5656776428 -4.8713679314 -5.4814286232
400 0 13.5999355316 9.3732128143 8.0481777191
401 0 -7.8220868111 -8.1255702972 13.1837739944
402 0 -7.3095927238 -4.8161826134 8.2730178833
403 0 10.557261467 -3.7464575768 9.6286354065
404 0 10.93708992 7.1656503677 -3.1895933151
405 0 0.4047752619 -1.928458333 -10.5126743317
406 0 5.1312217712 4.93070364 13.0775356293
407 0 -9.1979351044 8.6995191574 11.7493152618
408 0 -3.2867939472 2.1127176285 -8.1415920258
409 0 11.2745485306 -5.681427002 3.6187791824
410 0 -11.5784053802 10.232093811 -7.7543034554
411 0 -5.5728449821 -3.217954874 -3.6462540627
412 0 -3.5751640797 0.3339934945 8.3021860123
413 0 5.9732441902 -10.0005941391 -1.9950145483
414 0 -4.7959489822 7.4754152298 -10.1242637634
415 0 -11.085600853 13.1725139618 -6.7677998543
416 0 3.8083379269 0.4967676401 -12.2103462219
417 0 0.0378761254 3.6722655296 7.8162345886
418 0 -0.7239634991 12.461977005 -1.6266044378
419 0 2.0504069328 5.56777668 -4.7152633667
420 0 -3.2667672634 -5.8973760605 -5.4961223602
421 0 -0.4107087553 5.1728839874 3.308706522
422 0 7.9703345299 -12.2038164139 -11.7765932083
423 0 4.6920819283 -11.806558609 12.2156410217
424 0 4.999610424 -11.873752594 9.9798078537
425 0 12.6851348877 13.2479848862 3.6810905933
426 0 -1.6293896437 3.0459265709 0.1590629071
427 0 12.8807840347 -3.5639100075 2.7509183884
428 0 0.9156264067 10.6397228241 3.2723062038
429 0 4.9994482994 -8.9418106079 4.9799284935
430 0 8.0014858246 4.3318586349 -5.2493777275
431 0 5.6656289101 -9.0811262131 4.3387861252
432 0 -2.0086722374 -1.4852879047 11.9207696915
433 0 -13.0516004562 2.7446069717 9.0194606781
434 0 13.5732107162 -6.684428215 9.8450584412
435 0 -11.0329141617 3.0853750706 -13.5033226013
436 0 -7.7646889687 -9.4355258942 -3.7208142281
437 0 -12.1096048355 -3.0971443653 4.1403055191
438 0 -1.4008090496 3.6321539879 -9.1268253326
439 0 -3.0998430252 8.9980192184 8.8998794556
440 0 -7.2112789154 -3.5338094234 -3.3602128029
441 0 6.9710268974 9.5090799332 5.1663422585
442 0 -11.4287834167 7.4209852219 5.0288472176
443 0 -8.8450984955 7.3536748886 2.3527190685
444 0 -8.8180580139 1.2220461369 -0.4382248819
445 0 2.5907897949 -11.7250452042 -6.0929679871
446 0 12.7143354416 -11.6816835403 10.831823349
447 0 -7.7565670013 -7.9501409531 -13.2980222702
448 0 6.3759908676 -2.5914304256 -11.0500297546
449 0 -6.4139862061 8.9348735809 -3.2799868584
450 0 7.3309960365 -7.4316473007 -10.3800802231
451 0 2.4544918537 -13.1097974777 -7.570581913
452 0 9.8717021942 8.9542512894 -7.064136982
453 0 -9.5799436569 4.43897295 -10.242556572
454 0 12.6609897614 11.6129665375 -7.2166075706
455 0 13.448507309 0.4481368959 6.0835819244
456 0 -7.2919111252 1.3651373386 2.881704092
457 0 11.3719959259 1.7640138865 6.3872170448
458 0 -7.6214838028 -11.1935100555 5.2705368996
459 0 2.6483438015 9.4588518143 -13.4832181931
460 0 -5.5626912117 5.5823326111 -11.1589069366
461 0 7.3203110695 -4.3765716553 3.6874125004
462 0 9.7864866257 11.5760860443 -3.8714346886
463 0 4.6030917168 -13.2621135712 -11.0363273621
464 0 -13.4576025009 -1.9868366718 12.1945915222
465 0 -0.9683971405 4.8011951447 6.7361755371
466 0 -12.1542329788 -4.8458471298 -1.9824768305
467 0 -12.8706731796 -9.4780502319 5.507443428
468 0 -12.9555597305 -2.8381261826 3.864418745
469 0 4.9989395142 5.0258698463 8.5243453979
470 0 4.7421784401 13.1385040283 -4.9060277939
471 0 -12.1089782715 3.8287854195 -13.5448055267
472 0 -3.2412467003 -4.5198378563 12.8396453857
473 0 -10.6876382828 0.7655610442 11.871006012
474 0 -5.9383831024 -5.7170467377 -4.3362483978
475 0 11.9525327682 2.6394579411 12.8480911255
476 0 -11.4102392197 -6.5410108566 12.4501056671
477 0 -12.1958637238 1.0580598116 -13.5340023041
478 0 4.6647205353 -7.8526773453 -0.4778984189
479 0 12.8971700668 -9.3360891342 10.7806854248
480 0 -8.6874685287 11.1660785675 -12.1762504578
481 0 -12.0898237228 -1.8136385679 -2.5870337486
482 0 10.8895988464 -5.5008106232 0.746268332
483 0 -12.2795171738 -2.3273420334 -1.5230505466
484 0 -6.7808637619 -3.6931142807 -9.1100854874
485 0 -7.6751823425 -12.0579652786 -5.0257992744
486 0 11.7972974777 2.4496335983 -11.9193906784
487 0 -8.1328115463 -3.2198655605 13.4703578949
488 0 -9.2935199738 12.4656982422 -9.1949453354
489 0 -0.3112235963 -10.164727211 2.2857029438
490 0 12.4773454666 9.7685527802 2.5187647343
491 0 -5.8847384453 5.2142848969 -4.1451191902
492 0 6.4806370735 -5.1691708565 2.8114812374
493 0 5.2342796326 2.1225824356 11.6364393234
494 0 2.4508404732 -9.9055337906 2.1926476955
495 0 12.6956548691 -1.9414176941 10.0721540451
496 0 7.3469996452 -9.2698078156 9.3524093628
497 0 10.9528074265 6.8797101974 -5.5293235779
498 0 -2.9960086346 -4.0752444267 9.2796154022
499 0 -1.5355319977 -8.1176395416 13.1494035721
500 0 -1.486504674 10.8768730164 -1.6688563824
501 0 -8.4166460037 10.6185655594 -3.1728451252
502 0 9.5629339218 2.6163449287 -10.6401576996
503 0 4.369155407 3.3519339561 12.0857505798
504 0 6.3610143661 3.9122552872 -13.3586616516
505 0 1.0931739807 11.0120096207 6.8908071518
506 0 8.9635705948 7.8145136833 3.1177003384
507 0 -8.0709657669 -10.0329208374 6.4793701172
508 0 2.9934356213 1.7772507668 -0.4507606626
509 0 12.9850597382 7.8659095764 8.2887058258
510 0 11.9190950394 13.5656480789 12.2864656448
511 0 0.4811703563 -1.1833962202 -1.3243646622
512 0 5.1075325012 3.0904636383 -12.8628206253
513 0 -6.1903719902 3.1804177761 7.4507856369
514 0 -3.4285609722 -7.2320508957 -2.3069887161
515 0 2.2687461376 -1.3082853556 13.6842622757
516 0 4.6173849106 8.8457107544 6.7574086189
517 0 -13.1194047928 -3.8133451939 -0.9238666296
518 0 -3.39462924 -8.0850772858 5.4470939636
519 0 8.5617866516 8.6126585007 10.7831172943
520 0 1.6638120413 -2.4731090069 -2.0864369869
521 0 2.2914583683 11.8076257706 -5.879152298
522 0 0.7565698028 6.4834823608 -11.7143058777
523 0 -0.8327841759 -2.4178578854 -0.7294070125
524 0 5.4727993011 -4.7645144463 -4.0768651962
525 0 1.3607215881 -9.2520399094 -3.6647322178
526 0 12.5144176483 -12.2032661438 5.2389431
527 0 -8.3109674454 8.5041265488 -3.1672577858
528 0 -4.1444683075 -5.5156226158 -12.0634307861
529 0 -6.8698267937 10.579252243 4.3629851341
530 0 6.939268589 -2.2706289291 9.1073904037
531 0 2.9313952923 3.9239885807 6.7854194641
532 0 0.1555135399 8.9648675919 2.1459619999
533 0 -5.0797891617 -0.6924823523 -10.4262657166
534 0 5.728290081 -2.7210667133 -7.0364804268
535 0 -0.8382873535 -9.8349294662 -1.205893755
536 0 7.9605383873 1.4113273621 1.706400156
537 0 -4.402826786 -10.3602209091 -9.6054115295
538 0 -10.9424543381 -2.8434033394 -5.4546675682
539 0 12.5021982193 10.9459161758 8.9555339813
540 0 9.3984766006 -1.0805312395 2.999165535
541 0 12.9804811478 -9.0376434326 5.4226579666
542 0 -7.8130254745 -0.9162311554 8.4653396606
543 0 -11.4864854813 6.7582778931 -11.1374015808
544 0 6.7392549515 -12.6617431641 7.9540271759
545 0 -0.0973668694 -2.9552795887 1.6520080566
546 0 9.3347082138 -11.3168745041 -5.8833937645
547 0 11.5759220123 4.4038667679 -3.2698631287
548 0 5.2066049576 -10.0476179123 11.2271261215
549 0 -13.3696269989 -5.3928384781 -4.5033450127
550 0 -8.2763128281 3.5617432594 -4.3760175705
551 0 -6.5329341888 4.3542566299 4.2550897598
552 0 1.8574725389 2.6717145443 -9.4781150818
553 0 1.8229141235 10.324968338 6.6306438446
554 0 -4.716050148 10.3375825882 2.764097929
555 0 -4.1299939156 12.408080101 13.0313472748
556 0 -7.7666563988 -11.2072134018 7.9870738983
557 0 -3.8931865692 -4.8534412384 6.2856793404
558 0 -6.5258712769 -8.3850059509 1.086717844
559 0 -12.2716121674 -3.7539746761 3.2593164444
560 0 3.874550581 4.1377811432 5.1313052177
561 0 -12.3057012558 9.8878993988 9.6043109894
562 0 6.7414741516 -8.3532829285 3.5248308182
563 0 7.4204831123 -13.1624231339 -5.6731219292
564 0 9.0022163391 -11.5994882584 8.6674213409
565 0 11.522105217 -0.0841434523 -10.7322645187
566 0 0.8720820546 6.1424584389 -9.9572029114
567 0 -10.2240085602 0.1195863932 12.914806366
568 0 9.6804714203 -13.0478115082 -12.7549858093
569 0 13.4167051315 12.37180233 -12.4931592941
570 0 -1.7217891216 12.5780439377 -6.6633048058
571 0 2.3707001209 -9.8688583374 -1.2135802507
572 0 5.9679741859 3.6529889107 8.0168495178
573 0 10.1683397293 0.0427554548 2.9742519855
574 0 0.5281415582 -2.6676895618 -13.2338562012
575 0 3.9819533825 9.0998468399 6.0079860687
576 0 8.9768009186 -11.7718524933 1.0974686146
577 0 -12.2131757736 -10.211894989 -3.0763504505
578 0 5.3366527557 0.8394981623 -3.263790369
579 0 -0.7106872797 8.0265722275 -0.9961132407
580 0 3.8840990067 -12.5469532013 -6.9583640099
581 0 9.5018825531 -5.1555562019 -1.8029345274
582 0 -9.5721588135 11.8946008682 -12.7468605042
583 0 -10.5985679626 -9.3504400253 -0.1341587454
584 0 13.1337108612 -0.8102531433 8.3060121536
585 0 1.1346538067 -8.4061746597 -1.8469678164
586 0 2.8975818157 -11.800286293 2.4450051785
587 0 0.9359298944 -10.7372617722 -12.1793689728
588 0 2.9330272675 -12.0700263977 -6.9740157127
589 0 13.736998558 8.0232715607 0.6388428211
590 0 -6.3246998787 4.8491344452 -10.1884317398
591 0 -1.2597819567 1.0149868727 4.3802938461
592 0 -3.067658186 -11.015786171 -9.0078172684
593 0 9.3795223236 -12.1090831757 -6.3049449921
594 0 4.1658239365 12.010225296 -2.2453567982
595 0 7.7016906738 2.1434333324 -5.9234104156
596 0 -1.0396920443 7.1441111565 9.8960914612
597 0 -8.2790594101 1.1657013893 -2.9259483814
598 0 -8.7739639282 3.6228787899 -1.9565557241
599 0 -10.268040657 -5.395260334 -13.5361061096
600 0 1.7246468067 0.0957468748 10.2362384796
601 0 -7.6263904572 8.2682619095 2.2089049816
602 0 10.3863601685 6.5124788284 7.8193993568
603 0 5.2474656105 12.4566001892 -13.0658740997
604 0 -6.0613389015 12.4751968384 10.9424448013
605 0 -10.3563089371 3.4675540924 1.6609406471
606 0 -0.2171397507 -8.2874403 -4.0621528625
607 0 9.0956258774 7.6235322952 4.5246958733
608 0 4.3374047279 -12.5280866623 13.7155914307
609 0 5.2476348877 -0.3935576975 -1.889420867
610 0 9.1226377487 10.2250843048 10.6363582611
611 0 -10.8446893692 6.1925554276 9.5424432755
612 0 12.0869951248 11.7674417496 5.2622914314
613 0 -5.36282444 5.0918974876 -2.2559454441
614 0 7.6519341469 -10.2524166107 9.8255090714
615 0 -3.0479273796 12.4566307068 10.4370574951
616 0 -5.627351284 -6.5243878365 3.9073927402
617 0 -12.7711677551 -3.7291333675 -4.7882275581
618 0 9.279419899 -6.1313042641 -13.4023151398
619 0 -6.3455581665 -12.7812452316 0.3390205204
620 0 -2.6636712551 -1.074575901 -3.1502058506
621 0 10.3932723999 6.6729822159 -0.2404007167
622 0 -9.9924545288 -7.4707541466 -5.0782523155
623 0 10.0823249817 -10.62266922 5.2167692184
624 0 11.9613485336 -4.0835590363 -11.9332256317
625 0 5.5351109505 1.8863946199 0.7823489308
626 0 -7.9335236549 4.7674436569 10.0960912704
627 0 1.2493932247 10.4256286621 -13.6852865219
628 0 -3.162255764 -8.352145195 -5.7288141251
629 0 -10.8862380981 -10.0395364761 10.9430027008
630 0 7.0967946053 -12.4182014465 -1.8169367313
631 0 4.5307941437 12.0555887222 1.454723835
632 0 -10.6863508224 -7.7324624062 0.2224763185
633 0 4.5698413849 -11.5984477997 9.0723991394
634 0 -11.1787815094 -11.6806983948 10.0591068268
635 0 -3.6008193493 -5.8360915184 -11.6355037689
636 0 -0.7059656382 0.4183690548 -6.4081802368
637 0 -3.7326076031 -9.1979551315 -7.662987709