ITEM: TIMESTEP
0
ITEM: NUMBER OF ATOMS
15625
ITEM: BOX BOUNDS pp pp pp
-13.7473011017 13.7473011017
-13.7473011017 13.7473011017
-13.7473011017 13.7473011017
ITEM: ATOMS id type x y z
1 0 12.4807224274 -0.245159775 -10.2950172424
2 0 -0.7166934609 -9.9984102249 -2.3016223907
3 0 -8.0991067886 -2.8670322895 12.4296684265
4 0 3.1055219173 -8.6087198257 8.4563732147
5 0 11.5581245422 7.1717057228 -9.8211250305
6 0 11.6490831375 -8.2651863098 -0.8312270045
7 0 -11.6725902557 0.3600127995 -8.264541626
8 0 2.1083643436 0.052714251 -3.4786779881
9 0 10.7556476593 12.4860134125 -5.5149903297
10 0 -13.0080547333 -12.6174669266 12.5740127563
11 0 -9.5021028519 -9.5798368454 -10.4393920898
12 0 -12.4067964554 -10.887339592 -2.2751140594
13 0 -3.4678969383 -11.9843578339 -13.5777158737
14 0 8.2243185043 -8.315700531 -8.4355583191
15 0 -13.0401439667 3.7926542759 -13.1702785492
16 0 8.9369716644 -10.3466644287 -11.611495018
17 0 9.0359859467 -6.3580389023 10.5407590866
18 0 -11.3950681686 1.7248167992 10.0095148087
19 0 12.6858320236 12.6495370865 2.6752166748
20 0 2.8097982407 -11.2834863663 -1.8382962942
21 0 12.5285377502 5.963891983 -11.7234096527
22 0 -9.4071807861 4.8348078728 -2.0700817108
23 0 -4.8157253265 -9.9593648911 -6.8311247826
24 0 -0.9215498567 4.5510902405 -4.8277173042
25 0 7.0853295326 -1.9142205715 9.8873605728
26 0 -11.9938106537 -11.1326875687 5.1395130157
27 0 -0.4048900902 0.4024865031 -4.3359417915
28 0 4.8625779152 -5.7494859695 5.9458675385
29 0 -4.3590044975 -4.793961525 12.4292821884
30 0 -0.4676271677 -0.674672842 -12.2383012772
31 0 -12.3376941681 6.1826558113 13.5851392746
32 0 1.490440011 2.1762449741 -1.1880713701
33 0 -6.5911560059 8.1333112717 12.4299583435
34 0 -7.6671581268 -1.4240978956 4.7693896294
35 0 -9.1327066422 3.3936929703 -0.8794873357
36 0 -1.9923175573 -12.8035421371 6.5961914063
37 0 -1.0711107254 1.0054146051 -5.5098910332
38 0 -6.1118240356 -2.6572442055 -9.8581638336
39 0 -0.8916373253 -9.055562973 -2.6915650368
40 0 0.861055851 7.9223165512 2.2779283524
41 0 12.1444044113 -6.771946907 -6.7568078041
42 0 -8.1645498276 -2.9252500534 3.4521822929
43 0 12.230638504 -12.220246315 -2.6133637428
44 0 0.2674497962 7.4748392105 3.3508901596
45 0 3.628082037 -9.063495636 -7.8595733643
46 0 -9.6835508347 3.5657310486 -10.4651126862
47 0 -5.9482545853 5.0455627441 -6.9707756042
48 0 -10.181936264 -12.9746303558 0.2166467607
49 0 6.517999649 -5.3181405067 1.5682808161
50 0 -7.2133345604 -9.5242090225 1.3702338934
51 0 6.9370017052 -3.9112446308 2.878278017
52 0 2.8907468319 -1.6210500002 -13.1320867538
53 0 8.0985889435 -3.2783226967 8.3469114304
54 0 -12.6080904007 2.7291777134 7.5258274078
55 0 13.6083946228 -3.9154031277 3.5595068932
56 0 0.212688759 9.6178474426 -13.6533555984
57 0 -1.8272669315 -1.8555996418 -0.4666858613
58 0 3.8497624397 4.3168230057 -0.9190407991
59 0 -6.2629313469 6.1998887062 7.1422944069
60 0 8.1625776291 13.1383543015 2.5990395546
61 0 -6.705678463 -2.5359282494 8.9847145081
62 0 0.226523459 8.3478088379 -13.2102069855
63 0 0.5038262606 -3.6906795502 12.7558460236
64 0 -9.5707674026 13.4287223816 -2.6377561092
65 0 -10.8592195511 -7.0103492737 -7.6466436386
66 0 -13.6090621948 6.0779590607 13.4169378281
67 0 13.3081007004 -10.757349968 10.7038908005
68 0 10.940867424 1.5154719353 6.61130476
69 0 -9.2136058807 -2.6836698055 -0.5823082924
70 0 -5.4839158058 9.3721828461 -4.3756613731
71 0 -13.4227962494 -5.7546901703 13.6142625809
72 0 -9.2181596756 -6.5790524483 2.7547073364
73 0 -5.1631169319 6.593834877 -6.2659711838
74 0 6.3432440758 13.6707639694 -8.4245138168
75 0 12.0069980621 6.8533058167 -3.7554283142
76 0 -10.5371026993 5.8053202629 4.2213654518
77 0 -0.3192867637 12.211853981 -6.9993863106
78 0 12.3497142792 13.5258731842 7.4676623344
79 0 12.4966201782 9.3030929565 9.2780227661
80 0 -7.1052193642 -6.2016568184 0.4754603207
81 0 -12.339600563 0.1750804782 6.1360011101
82 0 2.540715456 4.1491036415 -10.3576946259
83 0 -10.3833532333 3.181460619 -9.0741968155
84 0 -11.2647275925 -3.2688789368 -8.915102005
85 0 13.1971330643 -8.9376821518 -10.4200744629
86 0 -7.2033777237 9.9988079071 3.7605686188
87 0 8.5635910034 -3.319735697e-04 6.4374265671
88 0 -9.7150650024 -5.643386364 3.3048667908
89 0 -10.9470005035 11.4893341064 -9.9083404541
90 0 -1.2528659105 -12.1219062805 -9.0017061234
91 0 -6.7338061333 12.1335401535 -9.6398773193
92 0 6.9379868507 11.3559617996 7.417057991
93 0 -2.3377661705 8.7938652039 -0.4578838944
94 0 -11.8062105179 -6.2026748657 1.8847994804
95 0 11.5714693069 -6.9954657555 1.6409964561
96 0 8.3447742462 -8.9974145889 -12.8559989929
97 0 -11.0398454666 5.2629747391 11.7423725128
98 0 6.9082436562 11.1338710785 -4.667869091
99 0 -8.5824966431 5.3366994858 4.447909832
100 0 6.3706202507 -2.5413684845 12.5344076157
101 0 -7.6389269829 -5.0248947144 12.3747358322
102 0 8.2842741013 -3.6106028557 9.2441635132
103 0 2.4005696774 -4.8235845566 -0.7639901638
104 0 -10.6892232895 -6.5705909729 -11.9044494629
105 0 -1.4667906761 1.621976018 -8.3187446594
106 0 1.2346606255 -1.2180474997 -2.2564628124
107 0 -3.1689629555 -5.5664539337 6.4878568649
108 0 -5.834956646 10.6874065399 6.6503973007
109 0 -2.3299164772 -12.3970708847 -0.587885797
110 0 12.4429769516 9.0732145309 -11.7034816742
111 0 -5.2018198967 3.2924616337 -10.290678978
112 0 2.7091684341 12.7114648819 -3.4299955368
113 0 -3.228718996 13.469335556 -0.7433146834
114 0 -2.4787809849 -5.6121711731 -12.4948377609
115 0 1.0914164782 -13.0327558517 8.6671361923
116 0 5.9553322792 9.5834369659 -8.124622345
117 0 -8.3891105652 -13.7260313034 -12.8257608414
118 0 5.3305692673 -0.6306363344 10.5779094696
119 0 -13.028886795 12.4348402023 -2.5030050278
120 0 -3.3214402199 1.1438685656 -8.559586525
121 0 3.8390283585 -9.1915092468 3.6434695721
122 0 11.4993934631 1.2341746092 7.7873344421
123 0 12.6000404358 1.1977379322 -8.5611925125
124 0 -1.2716246843 12.6887636185 -6.5908055305
125 0 -7.6247882843 -1.4540687799 -6.9419164658
126 0 -6.25192976 -12.7825241089 9.9749889374
127 0 6.9326257706 -12.8163948059 5.8791508675
128 0 12.9941158295 12.1767215729 -4.9714884758
129 0 -10.4095458984 -5.5265684128 5.5531668663
130 0 -6.9232573509 11.4279928207 -13.0510015488
131 0 1.8846901655 7.0966129303 -13.5634126663
132 0 -5.1402997971 -6.9629330635 -3.1121115685
133 0 10.6380205154 3.2887277603 -8.8571376801
134 0 5.0131487846 -13.5312900543 -4.894469738
135 0 -10.6464910507 -12.4153404236 -0.6363226175
136 0 -3.5972793102 7.4487171173 -2.166718483
137 0 -6.0915908813 -8.620341301 5.9641871452
138 0 1.7203142643 7.265024662 10.089099884
139 0 -5.7870659828 -0.2979156077 -5.4443554878
140 0 7.0212311745 -3.032823801 6.2239551544
141 0 -2.6099722385 0.2161634117 5.2932415009
142 0 -5.1631746292 -3.9029471874 0.6021011472
143 0 -0.8828010559 8.2257862091 -4.0932450294
144 0 7.1501054764 1.6848003864 -12.504114151
145 0 -10.6563568115 -5.6883296967 12.6605596542
146 0 5.2063045502 -4.475051403 -2.1168658733
147 0 2.9926536083 -2.4805927277 7.6175951958
148 0 6.8034934998 -3.5757598877 -7.4813909531
149 0 -6.0635781288 -0.3859526813 7.2722167969
150 0 -1.6459612846 -5.0601496696 -12.3661165237
151 0 6.0896391869 -3.7483313084 -10.9922218323
152 0 0.6252295375 7.9155421257 -10.8670921326
153 0 -7.8441009521 -6.0859622955 -8.2419757843
154 0 -7.212266922 -3.236741066 6.6098399162
155 0 -11.4159526825 -12.7206659317 -2.1641361713
156 0 -10.0532083511 -11.0280380249 -4.010717392
157 0 -3.2010803223 2.2562773228 -11.5708856583
158 0 -4.6136479378 -12.2808990479 5.45327425
159 0 -10.5682563782 11.2957210541 8.1935014725
160 0 9.0682849884 -0.2643223405 -6.2139019966
161 0 -10.4786720276 3.9906470776 -11.8758678436
162 0 7.6476950645 -11.9057264328 -6.9719514847
163 0 0.1961740851 5.2825808525 -3.2057337761
164 0 8.7189817429 10.7273216248 -9.4098072052
165 0 -6.2036762238 1.4534947872 -6.6376109123
166 0 -6.063123703 -0.1063810363 1.9627314806
167 0 -9.7720375061 7.5069646835 -5.4012732506
168 0 -11.9904298782 8.3386268616 -8.7754096985
169 0 -6.4512343407 -9.0677137375 10.4366140366
170 0 -3.6909048557 -8.8694496155 4.3461203575
171 0 10.4102077484 -6.8149003983 0.8756433725
172 0 6.8563752174 9.5348415375 10.0472946167
173 0 -6.241648674 2.4696276188 -11.19053936
174 0 2.5881729126 5.7160511017 -1.332177043
175 0 10.8528356552 10.1830358505 -5.8815488815
176 0 13.3633699417 -0.4960311949 -0.2232822925
177 0 13.1756420135 6.1881203651 8.1964941025
178 0 -10.4209527969 -3.7190668583 7.6371173859
179 0 1.2300652266 -4.8427343369 -11.3875637054
180 0 7.4026017189 -4.9172515869 -5.2717289925
181 0 5.020257473 3.3200924397 9.1325178146
182 0 -8.5082759857 9.8149805069 -12.2665700912
183 0 -4.4352817535 6.1343612671 7.3072137833
184 0 -6.9475150108 10.4984464645 -2.9839193821
185 0 -5.7544431686 -8.4622983932 -10.4155368805
186 0 -10.7816295624 -3.6400043964 12.7488298416
187 0 10.0116100311 7.4227666855 12.6907339096
188 0 3.9106431007 -7.1662640572 0.5603541136
189 0 -4.0796937943 4.4864492416 3.5591158867
190 0 7.7027344704 -4.5730805397 5.9067282677
191 0 7.4712381363 9.9777383804 -11.7017478943
192 0 -13.2208662033 -0.4475180805 12.9111175537
193 0 12.6693954468 1.2140724659 -7.5767259598
194 0 9.4793624878 -8.7953357697 -10.490193367
195 0 -7.996257782 11.6130285263 -4.2320408821
196 0 -7.5825047493 12.3881654739 13.0403604507
197 0 -5.7162547112 5.0083408356 1.7919932604
198 0 -10.1182861328 1.4999376535 -4.3135991096
199 0 2.2098531723 -4.6090941429 4.8859410286
200 0 6.1270503998 5.1087474823 -2.3703365326
201 0 -7.5003652573 10.2715845108 1.0851626396
202 0 11.2912960052 11.6783084869 -1.6041734219
203 0 -4.8888664246 -11.5769939423 1.0875400305
204 0 -8.4190444946 5.3995938301 -10.6749076843
205 0 2.6910133362 -7.5474071503 -5.591987133
206 0 -3.4452722073 6.4470639229 -3.5842576027
207 0 -6.8504242897 -1.0347146988 -2.7358167171
208 0 -12.1689958572 10.0139360428 -2.1364684105
209 0 12.3117780685 6.7137331963 -4.8636512756
210 0 8.2597064972 5.7276792526 -8.8985719681
211 0 8.4080133438 -9.9152679443 9.9273872375
212 0 2.0517263412 -7.9091854095 -0.5223183036
213 0 5.0890665054 -9.9474554062 1.3700835705
214 0 -3.6719326973 6.5696148872 -7.2734475136
215 0 -3.4879910946 -2.9450275898 -12.9338788986
216 0 -10.7992095947 2.1695206165 -3.6711187363
217 0 3.2770559788 -4.444006443 -6.6532597542
218 0 13.0626621246 -11.8691101074 -6.3326439857
219 0 6.6049370766 13.5310783386 11.3986263275
220 0 -4.3348922729 -5.2858099937 -2.6345961094
221 0 7.3014464378 -13.6637439728 -5.2371811867
222 0 6.5155849457 -13.2470502853 12.7388448715
223 0 0.0166926775 -12.77729702 1.2459020615
224 0 10.463886261 -2.2458376884 9.2771263123
225 0 3.6678106785 -7.7696733475 -8.2513875961
226 0 4.9399542809 -1.5292435884 -2.0521194935
227 0 -6.8081278801 -4.0384149551 0.0247402173
228 0 -2.7572250366 -11.266497612 5.190510273
229 0 11.5141944885 12.9228162766 7.0557966232
230 0 13.5332994461 -9.2644205093 -12.5081682205
231 0 -4.3298039436 -4.2779078484 3.5360846519
232 0 4.7458262444 11.7545080185 13.0425319672
233 0 -0.6634642482 -5.4864678383 6.7773356438
234 0 10.8885717392 10.9967460632 -4.4427695274
235 0 -10.8665704727 3.0456991196 -9.7679538727
236 0 -9.6056671143 9.0784416199 -12.9970998764
237 0 -9.8128252029 2.5812296867 8.9461870193
238 0 4.3405313492 -8.1714324951 10.5240106583
239 0 8.7215299606 10.1940631866 5.2908573151
240 0 -8.4293556213 -6.304813385 13.6843481064
241 0 2.5620913506 -8.4141731262 -9.2936258316
242 0 9.0560789108 -0.5184931755 -12.3049669266
243 0 -8.683962822 11.6090154648 -4.8299670219
244 0 0.5872259736 -7.2200284004 1.4961308241
245 0 -1.7417060137 -10.7245292664 1.5148909092
246 0 -11.0897312164 -13.1836481094 -13.3630418777
247 0 2.7876021862 12.5654497147 6.5517730713
248 0 -12.0378370285 -6.8251209259 5.1238398552
249 0 9.8296985626 -4.5736551285 -11.2361545563
250 0 12.4954423904 -6.5343556404 -7.9308657646
251 0 -12.9771471024 -5.9580059052 7.6063218117
252 0 -8.6531686783 3.1919620037 10.6628074646
253 0 12.249080658 4.1367373466 4.3682699203
254 0 12.1142587662 -1.6694482565 -11.9935054779
255 0 -9.2001581192 -4.6492996216 6.6850662231
256 0 -11.6619768143 -11.5913972855 -11.2565221786
257 0 2.9157488346 -5.0533690453 8.1888341904
258 0 9.3179321289 -5.6138038635 8.9441642761
259 0 -6.7131123543 1.418545723 -5.5986514091
260 0 1.6009527445 -8.3534469604 -1.5543007851
261 0 -8.3258686066 -4.1817855835 1.9896072149
262 0 -2.6905455589 -13.2307157516 5.9361314774
263 0 7.4705958366 5.845246315 7.8087687492
264 0 7.5730419159 4.8734874725 12.2606973648
265 0 -9.077003479 12.205373764 10.4689998627
266 0 -5.0122213364 4.4144325256 -6.6516652107
267 0 0.9037021399 -3.3474283218 10.6570749283
268 0 -9.9650096893 12.92557621 -7.6648674011
269 0 -8.9268217087 10.6951189041 3.6961305141
270 0 7.047326088 6.7080421448 9.4421701431
271 0 -6.0859279633 8.4708251953 -8.9818496704
272 0 -11.4140901566 -4.6463918686 0.0872584209
273 0 5.4813456535 -9.4351434708 -1.3046280146
274 0 6.4104790688 10.2646408081 0.0654601157
275 0 2.7360200882 -2.0005178452 -6.5113115311
276 0 -2.9360470772 3.0588731766 6.1314578056
277 0 7.5156064034 -5.0188341141 0.7126270533
278 0 7.8957967758 6.2962956429 11.3567562103
279 0 -2.7173054218 -7.2499666214 -4.7054700851
280 0 -2.7326042652 -7.389269352 -12.5101499557
281 0 -2.3582804203 -3.0535852909 -13.2466192245
282 0 -11.1691541672 2.8383669853 -6.4272270203
283 0 -4.3284277916 -11.1209506989 3.1286859512
284 0 -13.5946941376 5.5400500298 11.2990140915
285 0 9.285987854 -3.2097029686 0.9336820245
286 0 -3.9897828102 4.204729557 2.0743849277
287 0 -2.9754593372 -8.6208553314 -4.6745891571
288 0 -12.4290418625 -12.8737211227 -1.8235994577
289 0 7.8805646896 5.5793967247 -0.2348687202
290 0 4.143989563 -6.7550826073 -12.2462463379
291 0 -1.7833759785 8.9244670868 2.0925378799
292 0 4.5127248764 -1.5504227877 -6.4953875542
293 0 -4.9388680458 -0.6679396629 1.1313223839
294 0 3.3410582542 -5.1958422661 12.9237480164
295 0 4.5651788712 -7.6192603111 1.685364604
296 0 -7.3280344009 -2.5119378567 -12.6304092407
297 0 12.4621562958 2.8535022736 -5.117808342
298 0 12.2817459106 -13.5505046844 5.2991070747
299 0 -3.6763591766 1.4453775883 -1.8547148705
300 0 2.4684798717 -10.2061443329 -8.3190813065
301 0 -9.4139289856 -7.2944273949 3.3884747028
302 0 4.9726295471 -5.4048700333 13.29301548
303 0 3.4203932285 -7.6121869087 -9.3991117477
304 0 6.7906432152 11.0769519806 6.2576460838
305 0 -0.5492061377 -13.3388729095 5.2834596634
306 0 9.8271446228 8.0646915436 -3.6072216034
307 0 -1.0310800076 9.694434166 -7.5290203094
308 0 -8.8527050018 -6.4550132751 6.6070594788
309 0 -1.199364543 7.4023542404 7.1675357819
310 0 -4.9678854942 -10.3079195023 -3.375483036
311 0 -2.6709911823 5.314119339 -9.405957222
312 0 6.7377223969 -2.4333322048 4.4359784126
313 0 9.2853126526 7.8801379204 -1.5962443352
314 0 13.2066555023 3.724148035 -4.8513321877
315 0 6.0676474571 7.9109368324 -8.104177475
316 0 -9.4338502884 -6.2357945442 1.4547092915
317 0 -4.9588413239 1.1341131926 -6.1453690529
318 0 -6.3120622635 7.3575520515 -0.7780843377
319 0 -2.3262274265 12.6984453201 -10.8368558884
320 0 3.3155651093 -11.4952630997 7.8393678665
321 0 3.7875704765 -8.8090867996 5.3861222267
322 0 0.1921633929 -1.5777472258 9.3239688873
323 0 2.1402647495 -9.4420681 11.0653982162
324 0 -8.9912023544 -12.4082021713 -3.7664363384
325 0 8.6996908188 -5.1826720238 -7.610833168
326 0 -11.9239425659 7.6868572235 5.6685824394
327 0 5.962574482 -7.7494034767 -10.2609682083
328 0 2.0172708035 -9.1344642639 -5.9550991058
329 0 11.7821130753 12.8977012634 11.5637741089
330 0 9.428399086 -10.7373781204 12.9729290009
331 0 -2.0670919418 -0.8585232496 0.2582349777
332 0 7.6146445274 -3.3351461887 -9.7408037186
333 0 -10.5202445984 -4.2278852463 9.4499864578
334 0 7.3996763229 1.9941490889 -8.7579097748
335 0 7.3817949295 3.0968213081 -13.4822483063
336 0 -1.5652611256 0.7822689414 -6.6007022858
337 0 4.7677516937 7.4475431442 8.7534790039
338 0 -10.6456689835 -0.5554336905 2.658331871
339 0 11.5278110504 -3.4517757893 8.9516391754
340 0 -1.594968915 -11.3494539261 -5.2517337799
341 0 0.7320631146 -10.6860551834 -1.9620201588
342 0 4.0037536621 -8.7140321732 -2.87495327
343 0 -6.6991696358 -9.2302742004 -12.8705682755
344 0 11.9888658524 0.4536267817 -2.5056598186
345 0 -3.5522716045 -13.6725740433 11.5485210419
346 0 -3.5287976265 3.0219724178 -4.4027881622
347 0 -4.6946358681 -6.7683844566 12.8459558487
348 0 -1.2316460609 -5.0764026642 0.4074113667
349 0 1.5803551674 9.8345146179 -5.73300457
350 0 -6.5963349342 -7.9059696198 -2.8159060478
351 0 0.7785843015 5.2471656799 2.8773887157
352 0 13.0591259003 -7.9829306602 -10.5111837387
353 0 12.1101846695 -12.5068874359 -11.4751005173
354 0 3.6407155991 9.6056222916 4.2842149734
355 0 -13.6017942429 -9.6557455063 -9.7485551834
356 0 7.8318114281 0.3263959885 -13.5185785294
357 0 5.1837358475 5.3072485924 12.6035690308
358 0 5.0924658775 6.5080528259 2.4251356125
359 0 4.7153892517 -11.2246465683 -2.5607609749
360 0 -0.4546328783 -9.3818264008 0.9220154285
361 0 7.8753824234 -1.7025676966 12.2068395615
362 0 -7.6045598984 10.4984760284 -0.8264752626
363 0 13.1349191666 -7.3849053383 7.2957468033
364 0 -10.4831390381 -1.3485373259 -8.6687088013
365 0 -8.7593364716 12.2978153229 2.7269091606
366 0 6.6370491982 11.4649791718 -1.639054656
367 0 12.1324882507 10.9848299026 -4.955493927
368 0 -12.1466798782 -7.0703148842 -0.0367507376
369 0 10.5981626511 -2.302339077 7.1028356552
370 0 -2.0049674511 13.5173511505 -7.9706959724
371 0 12.4526367188 -3.9678189754 -1.7818727493
372 0 0.7149039507 5.0795550346 6.4502706528
373 0 8.2212505341 -10.029876709 9.0858898163
374 0 -2.1631886959 7.796145916 -7.3450164795
375 0 1.1221114397 6.0896883011 12.8061637878
376 0 -3.1500961781 -7.6425786018 0.0038530519
377 0 5.155313015 13.1826448441 -4.3233847618
378 0 1.8175387383 11.5683822632 8.2434864044
379 0 7.9370746613 -6.77105093 -11.306268692
380 0 6.8700799942 10.3897743225 -5.1817669868
381 0 11.4022550583 -6.3441886902 4.413412571
382 0 -8.7346820831 -6.9438266754 -8.6226186752
383 0 7.0737709999 4.8794884682 -2.4751632214
384 0 -1.0940525532 3.4422311783 -11.8605747223
385 0 10.1477642059 -7.5530929565 -0.7848501801
386 0 8.8077135086 -1.0626615286 -5.1904840469
387 0 11.350071907 -7.875521183 1.6520582438
388 0 13.2263936996 1.6092247963 1.3612171412
389 0 -10.3631696701 7.9182767868 -2.5900406837
390 0 13.6032133102 -12.9189777374 10.9823541641
391 0 -4.3320965767 -7.60942173 -10.4326620102
392 0 -6.9300432205 -11.5035715103 -10.1520414352
393 0 0.6150890589 -6.4696722031 -1.4684456587
394 0 -10.9094381332 7.929037571 7.9203100204
395 0 0.9380497336 -9.8514270782 1.0024245977
396 0 6.9071297646 8.3189506531 0.3497058451
397 0 -12.7589263916 13.2370166779 11.4388475418
398 0 6.4603247643 2.9239997864 -3.4193732738
399 0 10.6981945038 6.89463377 -13.4017524719
400 0 7.8052773476 -0.4546481967 -8.498790741
401 0 0.5918141007 6.0619821548 -1.0390361547
402 0 -10.9921865463 11.48990345 3.8435606956
403 0 2.2454991341 -11.7213850021 -1.3783193827
404 0 3.9914741516 12.1365308762 2.6152098179
405 0 -1.9515076876 9.0769128799 -11.8604650497
406 0 0.4097577035 -7.5444631577 8.2978515625
407 0 -3.639077425 -13.4187412262 -13.5805139542
408 0 0.907087326 4.6495132446 0.1964539587
409 0 -4.8082499504 4.1023168564 -11.6858501434
410 0 11.3886165619 -8.7093906403 -0.0721799284
411 0 -0.5771535039 3.3939783573 0.2674460411
412 0 1.4628111124 -0.6921563745 -0.3649002016
413 0 3.9958724976 8.5526857376 9.929265976
414 0 -7.2352924347 0.772423327 -6.442445755
415 0 3.669936657 8.2940998077 -8.860332489
416 0 2.0144944191 -2.5200657845 -13.67208004
417 0 -8.9385242462 -3.0258960724 -12.7450151443
418 0 3.4969236851 -12.9564943314 -7.6051125526
419 0 -11.4181394577 -1.8737499714 10.0547628403
420 0 -12.2289772034 2.3431024551 -6.1113977432
421 0 -2.2637295723 -2.6274573803 2.4039115906
422 0 6.6428170204 -9.7103862762 -6.4653515816
423 0 -3.4225299358 -2.0785367489 -10.2210559845
424 0 0.4499470592 13.0304555893 13.0598669052
425 0 -1.0054295063 13.0140838623 3.5455570221
426 0 13.2308473587 2.7620809078 10.3390083313
427 0 -1.1119049788 -4.6333270073 11.7771596909
428 0 12.0552892685 -7.1336913109 -10.5778417587
429 0 -10.9549598694 -10.2660045624 -1.9677832127
430 0 -1.4611549377 6.514421463 -10.5565595627
431 0 -3.2110152245 -6.9130072594 10.8351716995
432 0 5.9267401695 3.3632199764 3.4012680054
433 0 13.3953170776 -9.7654752731 -7.5465650558
434 0 -1.7083069086 9.7171554565 2.7274420261
435 0 1.99602139 10.3321819305 -3.1632804871
436 0 12.1832971573 -13.3771848679 3.2890584469
437 0 2.5811314583 6.741194725 -5.8863501549
438 0 1.9240983725 -1.752741456 -12.2499732971
439 0 5.7495498657 -10.6589651108 -0.1688935608
440 0 3.5615162849 -2.6542778015 12.6565074921
441 0 4.5662951469 2.5218811035 12.7031402588
442 0 2.480427742 -9.6145792007 7.2976474762
443 0 0.0431456678 9.9949731827 11.1516904831
444 0 -9.4248228073 4.543762207 4.7247815132
445 0 -3.8003437519 2.3240554333 9.3768320084
446 0 12.0758666992 6.1218590736 -8.6617879868
447 0 5.2288165092 2.7868490219 6.6342658997
448 0 -5.4627103806 11.6798086166 3.5491943359
449 0 -6.6847958565 -8.925412178 -9.1085195541
450 0 7.0342392921 4.803483963 -12.1333427429
451 0 -8.1875638962 -7.6042556763 10.3931360245
452 0 2.8139371872 -6.0860629082 12.4786586761
453 0 6.6181764603 -10.5288820267 -11.3934240341
454 0 -7.3795924187 -10.1784801483 11.6587076187
455 0 -7.0933885574 -4.0878844261 6.2166600227
456 0 9.872508049 4.55032444 4.491063118
457 0 -7.0700283051 5.6783099174 0.4124397933
458 0 11.6530017853 11.0225172043 3.1243648529
459 0 -0.0849529281 -0.7883523107 6.9804615974
460 0 -0.9158391953 11.6648979187 -13.7400131226
461 0 -13.7331104279 13.0098075867 -9.4781599045
462 0 -9.9990406036 -13.1125478745 -10.514298439
463 0 2.063587904 12.5770645142 -1.5957174301
464 0 -6.9383406639 8.4147481918 -6.8625063896
465 0 5.2638659477 -9.4270591736 4.472641468
466 0 -13.3402843475 6.9666209221 -13.0363445282
467 0 8.0078706741 8.7251358032 -7.4976425171
468 0 -3.6119103432 6.9436035156 -6.4723877907
469 0 -2.4457364082 -9.893362999 9.8106927872
470 0 -10.4755020142 8.0822257996 -8.2829008102
471 0 -7.7566123009 -5.8599433899 -6.2343440056
472 0 -7.7937135696 13.6210985184 3.7792327404
473 0 -3.7330744267 -7.2744617462 9.3535890579
474 0 7.7265405655 7.9057779312 -0.7053163052
475 0 -2.8027455807 -10.337556839 4.1895604134
476 0 3.069937706 -9.333313942 11.79616642
477 0 -5.3195977211 11.1966590881 -1.7243170738
478 0 3.6271255016 -0.1093882248 3.3399715424
479 0 7.8411273956 4.9150028229 6.0897040367
480 0 -1.9327125549 7.1594009399 6.4847593307
481 0 -1.668423295 8.754781723 11.2017726898
482 0 6.6992058754 3.2724127769 -6.0069150925
483 0 -8.0708494186 9.0759115219 -4.1627993584
484 0 10.2719316483 11.5778751373 -4.003464222
485 0 -10.7185077667 1.2924870253 9.4760465622
486 0 -6.8969464302 7.0141654015 1.6089850664
487 0 8.0301017761 1.7124236822 5.9096908569
488 0 2.2003686428 -12.3350143433 3.7918715477
489 0 9.8419475555 8.5597143173 -7.264213562
490 0 -0.7670513988 -8.5894193649 -12.8162727356
491 0 10.8549222946 -13.4383172989 11.6451272964
492 0 -6.302628994 2.6625595093 -3.4324688911
493 0 -11.3156633377 -10.2819156647 -2.759237051
494 0 -10.4337816238 -11.2406740189 9.076921463
495 0 10.8990278244 -4.0811514854 -1.3010325432
496 0 2.7497401237 -5.2319831848 6.4755244255
497 0 1.7906423807 -9.7887916565 12.2478733063
498 0 9.0925064087 2.4310922623 -9.4342451096
499 0 -6.5184321404 10.0878238678 -0.7133105397
500 0 -3.5298669338 5.0089025497 -8.7836170197
501 0 -6.4481639862 12.2347164154 1.0775538683
502 0 10.4340744019 10.0110387802 9.2065010071
503 0 6.9350185394 -1.127913475 10.0191116333
504 0 -7.2241997719 -1.6703397036 0.5573075414
505 0 5.7377901077 -3.6308796406 4.6852874756
506 0 -7.528263092 -0.1733538806 -4.0417966843
507 0 -0.3342221081 -8.5635557175 7.9688711166
508 0 3.9417738914 8.9119300842 -4.2826681137
509 0 -12.3537025452 -11.0607185364 -7.255695343
510 0 -4.937775135 5.1806564331 6.8764533997
511 0 -8.1514778137 -0.6068089604 -12.7276773453
512 0 4.7459611893 -3.8179214001 9.5059013367
513 0 -3.1590528488 11.4410877228 -0.1060997099
514 0 4.5410652161 -2.6462965012 3.7668693066
515 0 -13.7024698257 -2.2683858871 1.8527138233
516 0 -11.0504875183 -9.6927947998 -8.0051259995
517 0 -0.2759711444 -13.6836090088 11.2727956772
518 0 5.4473462105 1.2755273581 5.192065239
519 0 -8.6634874344 -9.6482229233 -3.2951118946
520 0 13.6396665573 -6.8907513618 -5.9052505493
521 0 13.3036756516 -1.0532704592 -12.4180774689
522 0 4.5343880653 -13.7471914291 1.4531824589
523 0 -10.0829801559 -1.8081700802 -11.393907547
524 0 -3.1343362331 9.181678772 -13.4181718826
525 0 -10.6542406082 2.6080408096 -7.7989459038
526 0 -10.9015436172 -11.2855997086 -8.8842153549
527 0 -8.1963472366 12.9059352875 -8.5543794632
528 0 -13.4078359604 0.0395140648 1.475569129
529 0 -12.3368377686 -12.8763008118 3.5929508209
530 0 -10.86373806 8.73188591 -0.4559491575
531 0 5.0609617233 7.654718399 -1.6733206511
532 0 11.0615625381 -7.3096451759 4.3938074112
533 0 6.4134411812 -1.1784443855 8.5684404373
534 0 6.6339912415 -10.4506444931 -5.7488322258
535 0 6.3345041275 -9.3392219543 7.6159334183
536 0 7.1691608429 2.234266758 10.527346611
537 0 2.1589970589 -10.7649412155 12.1747045517
538 0 9.7524833679 -0.926192224 -4.8980379105
539 0 3.8619241714 9.4344091415 2.8907825947
540 0 -13.1494312286 12.8815784454 -7.2057595253
541 0 -6.3252253532 -13.7284708023 13.5554065704
542 0 -8.0099916458 -10.1644935608 0.3842418492
543 0 -12.2800769806 -5.8662867546 2.5251629353
544 0 12.8807992935 -8.0234069824 -5.6452441216
545 0 6.5991258621 -9.9893417358 1.6629210711
546 0 -6.7321810722 -9.6455078125 -9.8970127106
547 0 12.1894817352 -7.0609369278 -5.9373540878
548 0 3.890052557 8.0459947586 -7.9678378105
549 0 7.5498971939 12.4635400772 5.2084121704
550 0 0.1297058314 2.0181338787 -6.1395001411
551 0 11.1197977066 5.5378203392 -0.1694628149
552 0 -13.3989086151 4.2937264442 -0.7232151628
553 0 9.5723562241 -6.6233234406 5.6034832001
554 0 9.7366495132 -6.0000252724 6.1727285385
555 0 2.5119965076 -2.269487381 -11.8434038162
556 0 5.6230607033 1.7429829836 1.3951960802
557 0 11.8500165939 -3.1555981636 -0.3284537792
558 0 -8.312210083 -0.0430224501 10.3863506317
559 0 2.2459814548 -2.6526119709 5.2590017319
560 0 -3.7135777473 -3.270522356 7.1833429337
561 0 -10.0057535172 5.3534889221 4.9391741753
562 0 8.6096496582 5.0519180298 3.6407673359
563 0 -2.8953850269 -13.0889644623 4.351293087
564 0 7.9703850746 11.1922035217 1.2863447666
565 0 -2.7573194504 -1.4972187281 -2.0296008587
566 0 -3.2450039387 -12.5964250565 12.5078048706
567 0 0.3314205408 6.0128550529 11.9834566116
568 0 -9.2075996399 -13.2882394791 6.972597599
569 0 -7.8277335167 -4.7308397293 8.5900115967
570 0 13.7069253922 -4.1499977112 -6.9532771111
571 0 12.9505910873 5.3837924004 -10.9022846222
572 0 5.7438058853 0.5877690911 6.4508485794
573 0 9.3079500198 -2.4937796593 -12.3547830582
574 0 -5.499973774 -2.192565918 -12.5526275635
575 0 -3.5412909985 -0.7288284302 -8.5522193909
576 0 11.8343696594 -1.1955239773 13.6656675339
577 0 -5.1745028496 -5.71945858 6.1681127548
578 0 8.2186479568 7.3710098267 -3.1172354221
579 0 13.5314426422 -9.6263952255 -3.4590308666
580 0 1.7184901237 -7.5644965172 12.3017301559
581 0 -0.1903471351 10.2642974854 9.1713895798
582 0 12.0104484558 4.5480599403 6.529302597
583 0 3.4177596569 9.8564100266 -13.5190048218
584 0 -1.5989624262 13.2904911041 -4.459859848
585 0 -12.1544361115 2.3704476357 8.3513669968
586 0 -7.9939203262 12.2145595551 5.9164595604
587 0 1.3778898716 10.0114822388 12.7121067047
588 0 8.8096084595 -10.8077230453 7.3461990356
589 0 3.3864843845 8.7339429855 -3.4237575531
590 0 -10.3214969635 -0.0078999642 -6.4441099167
591 0 -6.1925430298 -2.760445118 -7.4464783669
592 0 13.3092327118 10.2510194778 -10.6489458084
593 0 -10.262049675 8.1316833496 11.4493083954
594 0 6.294113636 -7.1562948227 7.5597352982
595 0 11.9020690918 -9.6165771484 -8.2066869736
596 0 -7.1268811226 8.8340673447 8.7822170258
597 0 -10.00715065 -0.9151182175 4.0545639992
598 0 -12.555390358 -2.3422648907 9.3679285049
599 0 -11.0906047821 -7.3540930748 5.4954667091
600 0 -0.5948454142 -12.3614721298 0.7093068957
601 0 -8.5240621567 -13.6518268585 13.7424240112
602 0 13.1319484711 -8.6428642273 -3.1785213947
603 0 -6.3941731453 4.0657291412 -6.6618895531
604 0 0.9180809259 12.5202980042 -5.3134913445
605 0 2.587846756 10.592040062 11.35567379
606 0 11.6949052811 -13.74406147 2.4009950161
607 0 3.4038658142 2.6144578457 6.3514246941
608 0 4.8812689781 2.8653619289 -6.2235341072
609 0 12.7416543961 -3.7251412868 -12.8137407303
610 0 -2.1250391006 -4.5512228012 -1.8975988626
611 0 -11.6969394684 5.1229095459 -11.740732193
612 0 -6.1469063759 -2.7606022358 -11.185087204
613 0 -3.0536935329 -3.3050048351 0.6513998508
614 0 9.8212060928 10.9512319565 -10.1107387543
615 0 -13.069685936 5.4366698265 -11.5096998215
616 0 -2.5781714916 -4.3721389771 0.5005457401
617 0 -8.2608318329 3.4988462925 13.6916980743
618 0 0.2364112884 -7.0536623001 -8.9056282043
619 0 -5.8542361259 -11.7676124573 8.6786108017
620 0 11.3691339493 -1.6855064631 -9.8074731827
621 0 -1.5375134945 -7.6126899719 -7.2716264725
622 0 9.0662946701 7.3979320526 5.8520727158
623 0 -9.4600067139 -12.8054666519 -1.9346272945
624 0 3.8459801674 1.9851526022 -6.9756803513
625 0 1.6305052042 -3.5591323376 0.9273919463
626 0 -5.4782586098 -1.9574047327 -10.5329742432
627 0 -2.0285360813 9.0773658752 -10.8551273346
628 0 -0.9940401316 -10.5024194717 -12.8798742294
629 0 -1.9917111397 11.6216192245 5.5917239189
630 0 9.7849235535 3.5335674286 -3.1714603901
631 0 6.5569453239 -11.5628843307 -12.0245990753
632 0 -7.3698472977 11.616314888 11.1554412842
633 0 1.2939747572 -11.2849206924 -1.1947189569
634 0 -9.8410015106 5.6404204369 -0.3504498899
635 0 -4.9501571655 -3.162902832 -11.9044418335
636 0 6.76527071 -10.398525238 -9.675160408